<?xml version="1.0" encoding="UTF-8"?>

<!-- generated on 2024-12-09 18:39:25 by Eclipse SUMO GUI Version 1.21.0
<sumoConfiguration xmlns:xsi="http://www.w3.org/2001/XMLSchema-instance" xsi:noNamespaceSchemaLocation="http://sumo.dlr.de/xsd/sumoConfiguration.xsd">

    <input>
        <net-file value="interchange-variation-1.net.xml"/>
        <route-files value="interchangeGeneratedTraffic.rou.xml"/>
    </input>

    <output>
        <tripinfo-output value="data/trip_info.xml"/>
        <vehroute-output value="data/vehicle_routes.xml"/>
    </output>

    <time>
        <begin value="0"/>
        <end value="1000"/>
        <step-length value="0.05"/>
    </time>

    <gui_only>
        <delay value="200"/>
    </gui_only>

</sumoConfiguration>
-->

<routes xmlns:xsi="http://www.w3.org/2001/XMLSchema-instance" xsi:noNamespaceSchemaLocation="http://sumo.dlr.de/xsd/routes_file.xsd">
</routes>
e id="m60-m62_19" depart="4.00" arrival="80.20">
        <route edges="E10 E1 146417963 146417963-AddedOffRampEdge 145876507 145876507.29 145876507-AddedOffRampEdge 166118952 230600243-AddedOnRampEdge 230600243"/>
    </vehicle>

    <vehicle id="m60-m62_163" depart="6.65" arrival="81.85">
        <route edges="E10 E1 146417963 146417963-AddedOffRampEdge 145876507 145876507.29 145876507-AddedOffRampEdge 166118952 230600243-AddedOnRampEdge 230600243"/>
    </vehicle>

    <vehicle id="m60-m62_635" depart="10.50" arrival="89.40">
        <route edges="E14 E2 146417963 146417963-AddedOffRampEdge 145876507 145876507.29 145876507-AddedOffRampEdge 166118952 230600243-AddedOnRampEdge 230600243"/>
    </vehicle>

    <vehicle id="m60-m62_351" depart="14.95" arrival="90.65">
        <route edges="E10 E1 146417963 146417963-AddedOffRampEdge 145876507 145876507.29 145876507-AddedOffRampEdge 166118952 230600243-AddedOnRampEdge 230600243"/>
    </vehicle>

    <vehicle id="m60-m62_457" depart="15.05" arrival="91.80">
        <route edges="E11 E0 146417963 146417963-AddedOffRampEdge 145876507 145876507.29 145876507-AddedOffRampEdge 166118952 230600243-AddedOnRampEdge 230600243"/>
    </vehicle>

    <vehicle id="m60-m62_748" depart="16.90" arrival="93.05">
        <route edges="E12 E0 146417963 146417963-AddedOffRampEdge 145876507 145876507.29 145876507-AddedOffRampEdge 166118952 230600243-AddedOnRampEdge 230600243"/>
    </vehicle>

    <vehicle id="m60-m602_28" depart="7.80" arrival="94.60">
        <route edges="E13 E2 146417963 146417963-AddedOffRampEdge 145876507 145876507.29 145876507-AddedOffRampEdge 145876504 1050880328-AddedOnRampEdge 1050880328 145868725-AddedOnRampEdge 145868725"/>
    </vehicle>

    <vehicle id="m60-m62_169" depart="18.80" arrival="95.20">
        <route edges="E10 E1 146417963 146417963-AddedOffRampEdge 145876507 145876507.29 145876507-AddedOffRampEdge 166118952 230600243-AddedOnRampEdge 230600243"/>
    </vehicle>

    <vehicle id="m60-m602_610" depart="9.20" arrival="95.80">
        <route edges="E9 E1 146417963 146417963-AddedOffRampEdge 145876507 145876507.29 145876507-AddedOffRampEdge 145876504 1050880328-AddedOnRampEdge 1050880328 145868725-AddedOnRampEdge 145868725"/>
    </vehicle>

    <vehicle id="m62-m60-b_65" depart="1.75" arrival="96.10">
        <route edges="E6 46372495 111538044 296702213 E15 145852821.67 145852815 145852815-AddedOffRampEdge 1066957350 145852800#1"/>
    </vehicle>

    <vehicle id="m60-m62_861" depart="18.75" arrival="96.45">
        <route edges="E11 E0 146417963 146417963-AddedOffRampEdge 145876507 145876507.29 145876507-AddedOffRampEdge 166118952 230600243-AddedOnRampEdge 230600243"/>
    </vehicle>

    <vehicle id="m60-north_56" depart="2.10" arrival="96.75">
        <route edges="E11 E0 146417963 146417963-AddedOffRampEdge 158470844#0 158470844#1-AddedOnRampEdge 158470844#1 145852821 145852821.67 145852815 145852815-AddedOffRampEdge 1066957350 145852800#1"/>
    </vehicle>

    <vehicle id="m60-m602_63" depart="11.00" arrival="97.00">
        <route edges="E10 E1 146417963 146417963-AddedOffRampEdge 145876507 145876507.29 145876507-AddedOffRampEdge 145876504 1050880328-AddedOnRampEdge 1050880328 145868725-AddedOnRampEdge 145868725"/>
    </vehicle>

    <vehicle id="m60-m62_176" depart="22.30" arrival="97.60">
        <route edges="E10 E1 146417963 146417963-AddedOffRampEdge 145876507 145876507.29 145876507-AddedOffRampEdge 166118952 230600243-AddedOnRampEdge 230600243"/>
    </vehicle>

    <vehicle id="m62-m60-a_145" depart="1.40" arrival="100.75">
        <route edges="E7 46372495 111538044 296702213 296702213.417 145852821 145852821.67 145852815 145852815-AddedOffRampEdge 1066957350 145852800#1"/>
    </vehicle>

    <vehicle id="m62-m60-b_558" depart="4.35" arrival="102.00">
        <route edges="E6 46372495 111538044 296702213 E15 145852821.67 145852815 145852815-AddedOffRampEdge 1066957350 145852800#1"/>
    </vehicle>

    <vehicle id="m60-north_12" depart="1.35" arrival="102.80">
        <route edges="E10 E1 146417963 146417963-AddedOffRampEdge 158470844#0 158470844#1-AddedOnRampEdge 158470844#1 145852821 145852821.67 145852815 145852815-AddedOffRampEdge 1066957350 145852800#1"/>
    </vehicle>

    <vehicle id="m62-m60-b_839" depart="4.05" arrival="103.20">
        <route edges="E7 46372495 111538044 296702213 E15 145852821.67 145852815 145852815-AddedOffRampEdge 1066957350 145852800#1"/>
    </vehicle>

    <vehicle id="m60-north_698" depart="2.05" arrival="103.55">
        <route edges="E13 E2 146417963 146417963-AddedOffRampEdge 158470844#0 158470844#1-AddedOnRampEdge 158470844#1 145852821 145852821.67 145852815 145852815-AddedOffRampEdge 1066957350 145852800#1"/>
    </vehicle>

    <vehicle id="m60-north_542" depart="4.70" arrival="103.80">
        <route edges="E11 E0 146417963 146417963-AddedOffRampEdge 158470844#0 158470844#1-AddedOnRampEdge 158470844#1 145852821 145852821.67 145852815 145852815-AddedOffRampEdge 1066957350 145852800#1"/>
    </vehicle>

    <vehicle id="m60-north_400" depart="1.35" arrival="104.40">
        <route edges="E14 E2 146417963 146417963-AddedOffRampEdge 158470844#0 158470844#1-AddedOnRampEdge 158470844#1 145852821 145852821.67 145852815 145852815-AddedOffRampEdge 1066957350 145852800#1"/>
    </vehicle>

    <vehicle id="m62-m60-a_428" depart="5.40" arrival="104.85">
        <route edges="E8 46372495 111538044 296702213 296702213.417 145852821 145852821.67 145852815 145852815-AddedOffRampEdge 1066957350 145852800#1"/>
    </vehicle>

    <vehicle id="m60-north_793" depart="2.40" arrival="105.65">
        <route edges="E9 E1 146417963 146417963-AddedOffRampEdge 158470844#0 158470844#1-AddedOnRampEdge 158470844#1 145852821 145852821.67 145852815 145852815-AddedOffRampEdge 1066957350 145852800#1"/>
    </vehicle>

    <vehicle id="m62-m60-b_234" depart="7.00" arrival="106.20">
        <route edges="E6 46372495 111538044 296702213 E15 145852821.67 145852815 145852815-AddedOffRampEdge 1066957350 145852800#1"/>
    </vehicle>

    <vehicle id="m60-m62_231" depart="36.85" arrival="106.85">
        <route edges="E14 E2 146417963 146417963-AddedOffRampEdge 145876507 145876507.29 145876507-AddedOffRampEdge 166118952 230600243-AddedOnRampEdge 230600243"/>
    </vehicle>

    <vehicle id="m62-m60-b_387" depart="6.65" arrival="107.35">
        <route edges="E7 46372495 111538044 296702213 E15 145852821.67 145852815 145852815-AddedOffRampEdge 1066957350 145852800#1"/>
    </vehicle>

    <vehicle id="m60-m62_257" depart="38.75" arrival="108.10">
        <route edges="E13 E2 146417963 146417963-AddedOffRampEdge 145876507 145876507.29 145876507-AddedOffRampEdge 166118952 230600243-AddedOnRampEdge 230600243"/>
    </vehicle>

    <vehicle id="m62-m60-a_352" depart="8.05" arrival="109.15">
        <route edges="E8 46372495 111538044 296702213 296702213.417 145852821 145852821.67 145852815 145852815-AddedOffRampEdge 1066957350 145852800#1"/>
    </vehicle>

    <vehicle id="m60-north_311" depart="4.65" arrival="109.85">
        <route edges="E13 E2 146417963 146417963-AddedOffRampEdge 158470844#0 158470844#1-AddedOnRampEdge 158470844#1 145852821 145852821.67 145852815 145852815-AddedOffRampEdge 1066957350 145852800#1"/>
    </vehicle>

    <vehicle id="m62-m60-a_273" depart="10.70" arrival="112.25">
        <route edges="E8 46372495 111538044 296702213 296702213.417 145852821 145852821.67 145852815 145852815-AddedOffRampEdge 1066957350 145852800#1"/>
    </vehicle>

    <vehicle id="m60-north_628" depart="7.10" arrival="112.65">
        <route edges="E14 E2 146417963 146417963-AddedOffRampEdge 158470844#0 158470844#1-AddedOnRampEdge 158470844#1 145852821 145852821.67 145852815 145852815-AddedOffRampEdge 1066957350 145852800#1"/>
    </vehicle>

    <vehicle id="m60-m62_705" depart="43.65" arrival="115.30">
        <route edges="E10 E1 146417963 146417963-AddedOffRampEdge 145876507 145876507.29 145876507-AddedOffRampEdge 166118952 230600243-AddedOnRampEdge 230600243"/>
    </vehicle>

    <vehicle id="m62-m60-b_13" depart="9.30" arrival="115.65">
        <route edges="E7 46372495 111538044 296702213 E15 145852821.67 145852815 145852815-AddedOffRampEdge 1066957350 145852800#1"/>
    </vehicle>

    <vehicle id="m60-m62_692" depart="50.80" arrival="116.90">
        <route edges="E10 E1 146417963 146417963-AddedOffRampEdge 145876507 145876507.29 145876507-AddedOffRampEdge 166118952 230600243-AddedOnRampEdge 230600243"/>
    </vehicle>

    <vehicle id="m62-m60-b_669" depart="13.35" arrival="117.20">
        <route edges="E8 46372495 111538044 296702213 E15 145852821.67 145852815 145852815-AddedOffRampEdge 1066957350 145852800#1"/>
    </vehicle>

    <vehicle id="m62-m60-a_721" depart="9.60" arrival="117.85">
        <route edges="E6 46372495 111538044 296702213 296702213.417 145852821 145852821.67 145852815 145852815-AddedOffRampEdge 1066957350 145852800#1"/>
    </vehicle>

    <vehicle id="m60-north_634" depart="9.55" arrival="118.35">
        <route edges="E12 E0 146417963 146417963-AddedOffRampEdge 158470844#0 158470844#1-AddedOnRampEdge 158470844#1 145852821 145852821.67 145852815 145852815-AddedOffRampEdge 1066957350 145852800#1"/>
    </vehicle>

    <vehicle id="m62-m60-a_916" depart="12.20" arrival="118.45">
        <route edges="E6 46372495 111538044 296702213 296702213.417 145852821 145852821.67 145852815 145852815-AddedOffRampEdge 1066957350 145852800#1"/>
    </vehicle>

    <vehicle id="m62-m60-b_8" depart="14.60" arrival="118.55">
        <route edges="E7 46372495 111538044 296702213 E15 145852821.67 145852815 145852815-AddedOffRampEdge 1066957350 145852800#1"/>
    </vehicle>

    <vehicle id="m60-worsley_552" depart="2.75" arrival="119.05">
        <route edges="E12 E0 146417963 146417963-AddedOffRampEdge 158470844#0 158470844#1-AddedOnRampEdge 158470844#1 145852821 145852821.67 145852815 145852815-AddedOffRampEdge 145852856"/>
    </vehicle>

    <vehicle id="m60-m602_108" depart="38.55" arrival="119.20">
        <route edges="E12 E0 146417963 146417963-AddedOffRampEdge 145876507 145876507.29 145876507-AddedOffRampEdge 145876504 1050880328-AddedOnRampEdge 1050880328 145868725-AddedOnRampEdge 145868725"/>
    </vehicle>

    <vehicle id="m62-m60-b_926" depart="14.85" arrival="119.65">
        <route edges="E6 46372495 111538044 296702213 E15 145852821.67 145852815 145852815-AddedOffRampEdge 1066957350 145852800#1"/>
    </vehicle>

    <vehicle id="m62-m60-b_416" depart="11.95" arrival="120.00">
        <route edges="E7 46372495 111538044 296702213 E15 145852821.67 145852815 145852815-AddedOffRampEdge 1066957350 145852800#1"/>
    </vehicle>

    <vehicle id="m60-worsley_712" depart="10.75" arrival="120.15">
        <route edges="E11 E0 146417963 146417963-AddedOffRampEdge 158470844#0 158470844#1-AddedOnRampEdge 158470844#1 145852821 145852821.67 145852815 145852815-AddedOffRampEdge 145852856"/>
    </vehicle>

    <vehicle id="m62-m60-b_85" depart="17.20" arrival="120.20">
        <route edges="E7 46372495 111538044 296702213 E15 145852821.67 145852815 145852815-AddedOffRampEdge 1066957350 145852800#1"/>
    </vehicle>

    <vehicle id="m62-m60-a_967" depart="15.95" arrival="121.50">
        <route edges="E8 46372495 111538044 296702213 296702213.417 145852821 145852821.67 145852815 145852815-AddedOffRampEdge 1066957350 145852800#1"/>
    </vehicle>

    <vehicle id="m602-m60_242" depart="2.45" arrival="123.70">
        <route edges="E4 145868728 145876496 611356040 145876499 158470844#1-AddedOnRampEdge 158470844#1 145852821 145852821.67 145852815 145852815-AddedOffRampEdge 1066957350 145852800#1"/>
    </vehicle>

    <vehicle id="m60-north_389" depart="7.30" arrival="124.45">
        <route edges="E11 E0 146417963 146417963-AddedOffRampEdge 158470844#0 158470844#1-AddedOnRampEdge 158470844#1 145852821 145852821.67 145852815 145852815-AddedOffRampEdge 1066957350 145852800#1"/>
    </vehicle>

    <vehicle id="m62-m60-a_543" depart="18.60" arrival="125.10">
        <route edges="E8 46372495 111538044 296702213 296702213.417 145852821 145852821.67 145852815 145852815-AddedOffRampEdge 1066957350 145852800#1"/>
    </vehicle>

    <vehicle id="m60-north_851" depart="12.65" arrival="126.10">
        <route edges="E13 E2 146417963 146417963-AddedOffRampEdge 158470844#0 158470844#1-AddedOnRampEdge 158470844#1 145852821 145852821.67 145852815 145852815-AddedOffRampEdge 1066957350 145852800#1"/>
    </vehicle>

    <vehicle id="m602-m60_818" depart="3.25" arrival="126.25">
        <route edges="E5 145868728 145876496 611356040 145876499 158470844#1-AddedOnRampEdge 158470844#1 145852821 145852821.67 145852815 145852815-AddedOffRampEdge 1066957350 145852800#1"/>
    </vehicle>

    <vehicle id="m602-m60_746" depart="1.65" arrival="126.85">
        <route edges="E3 145868728 145876496 611356040 145876499 158470844#1-AddedOnRampEdge 158470844#1 145852821 145852821.67 145852815 145852815-AddedOffRampEdge 1066957350 145852800#1"/>
    </vehicle>

    <vehicle id="m62-m60-a_300" depart="17.50" arrival="127.20">
        <route edges="E6 46372495 111538044 296702213 296702213.417 145852821 145852821.67 145852815 145852815-AddedOffRampEdge 1066957350 145852800#1"/>
    </vehicle>

    <vehicle id="m60-north_349" depart="12.90" arrival="129.80">
        <route edges="E12 E0 146417963 146417963-AddedOffRampEdge 158470844#0 158470844#1-AddedOnRampEdge 158470844#1 145852821 145852821.67 145852815 145852815-AddedOffRampEdge 1066957350 145852800#1"/>
    </vehicle>

    <vehicle id="m60-north_932" depart="14.80" arrival="129.85">
        <route edges="E14 E2 146417963 146417963-AddedOffRampEdge 158470844#0 158470844#1-AddedOnRampEdge 158470844#1 145852821 145852821.67 145852815 145852815-AddedOffRampEdge 1066957350 145852800#1"/>
    </vehicle>

    <vehicle id="m62-m60-b_648" depart="22.75" arrival="130.60">
        <route edges="E6 46372495 111538044 296702213 E15 145852821.67 145852815 145852815-AddedOffRampEdge 1066957350 145852800#1"/>
    </vehicle>

    <vehicle id="m62-m60-b_229" depart="23.85" arrival="131.80">
        <route edges="E8 46372495 111538044 296702213 E15 145852821.67 145852815 145852815-AddedOffRampEdge 1066957350 145852800#1"/>
    </vehicle>

    <vehicle id="m602-m60_155" depart="4.25" arrival="132.80">
        <route edges="E3 145868728 145876496 611356040 145876499 158470844#1-AddedOnRampEdge 158470844#1 145852821 145852821.67 145852815 145852815-AddedOffRampEdge 1066957350 145852800#1"/>
    </vehicle>

    <vehicle id="m62-m60-a_247" depart="19.85" arrival="133.15">
        <route edges="E7 46372495 111538044 296702213 296702213.417 145852821 145852821.67 145852815 145852815-AddedOffRampEdge 1066957350 145852800#1"/>
    </vehicle>

    <vehicle id="m60-worsley_825" depart="12.75" arrival="133.65">
        <route edges="E9 E1 146417963 146417963-AddedOffRampEdge 158470844#0 158470844#1-AddedOnRampEdge 158470844#1 145852821 145852821.67 145852815 145852815-AddedOffRampEdge 145852856"/>
    </vehicle>

    <vehicle id="m60-north_502" depart="16.80" arrival="134.00">
        <route edges="E13 E2 146417963 146417963-AddedOffRampEdge 158470844#0 158470844#1-AddedOnRampEdge 158470844#1 145852821 145852821.67 145852815 145852815-AddedOffRampEdge 1066957350 145852800#1"/>
    </vehicle>

    <vehicle id="m62-m60-a_121" depart="25.40" arrival="135.00">
        <route edges="E6 46372495 111538044 296702213 296702213.417 145852821 145852821.67 145852815 145852815-AddedOffRampEdge 1066957350 145852800#1"/>
    </vehicle>

    <vehicle id="m602-m60_965" depart="5.05" arrival="135.30">
        <route edges="E4 145868728 145876496 611356040 145876499 158470844#1-AddedOnRampEdge 158470844#1 145852821 145852821.67 145852815 145852815-AddedOffRampEdge 1066957350 145852800#1"/>
    </vehicle>

    <vehicle id="m62-m60-b_384" depart="22.45" arrival="136.20">
        <route edges="E7 46372495 111538044 296702213 E15 145852821.67 145852815 145852815-AddedOffRampEdge 1066957350 145852800#1"/>
    </vehicle>

    <vehicle id="m62-m60-a_897" depart="21.25" arrival="136.55">
        <route edges="E8 46372495 111538044 296702213 296702213.417 145852821 145852821.67 145852815 145852815-AddedOffRampEdge 1066957350 145852800#1"/>
    </vehicle>

    <vehicle id="m62-m60-b_585" depart="26.45" arrival="136.55">
        <route edges="E8 46372495 111538044 296702213 E15 145852821.67 145852815 145852815-AddedOffRampEdge 1066957350 145852800#1"/>
    </vehicle>

    <vehicle id="m60-north_805" depart="18.65" arrival="137.40">
        <route edges="E14 E2 146417963 146417963-AddedOffRampEdge 158470844#0 158470844#1-AddedOnRampEdge 158470844#1 145852821 145852821.67 145852815 145852815-AddedOffRampEdge 1066957350 145852800#1"/>
    </vehicle>

    <vehicle id="m60-north_521" depart="16.90" arrival="137.70">
        <route edges="E9 E1 146417963 146417963-AddedOffRampEdge 158470844#0 158470844#1-AddedOnRampEdge 158470844#1 145852821 145852821.67 145852815 145852815-AddedOffRampEdge 1066957350 145852800#1"/>
    </vehicle>

    <vehicle id="m62-m60-b_451" depart="25.05" arrival="138.35">
        <route edges="E7 46372495 111538044 296702213 E15 145852821.67 145852815 145852815-AddedOffRampEdge 1066957350 145852800#1"/>
    </vehicle>

    <vehicle id="m602-m60_725" depart="6.90" arrival="138.80">
        <route edges="E3 145868728 145876496 611356040 145876499 158470844#1-AddedOnRampEdge 158470844#1 145852821 145852821.67 145852815 145852815-AddedOffRampEdge 1066957350 145852800#1"/>
    </vehicle>

    <vehicle id="m602-m60_545" depart="5.90" arrival="138.85">
        <route edges="E5 145868728 145876496 611356040 145876499 158470844#1-AddedOnRampEdge 158470844#1 145852821 145852821.67 145852815 145852815-AddedOffRampEdge 1066957350 145852800#1"/>
    </vehicle>

    <vehicle id="m60-m62_715" depart="57.00" arrival="140.80">
        <route edges="E13 E2 146417963 146417963-AddedOffRampEdge 145876507 145876507.29 145876507-AddedOffRampEdge 166118952 230600243-AddedOnRampEdge 230600243"/>
    </vehicle>

    <vehicle id="m62-m60-b_461" depart="28.05" arrival="141.05">
        <route edges="E6 46372495 111538044 296702213 E15 145852821.67 145852815 145852815-AddedOffRampEdge 1066957350 145852800#1"/>
    </vehicle>

    <vehicle id="m62-m60-a_963" depart="20.10" arrival="141.20">
        <route edges="E6 46372495 111538044 296702213 296702213.417 145852821 145852821.67 145852815 145852815-AddedOffRampEdge 1066957350 145852800#1"/>
    </vehicle>

    <vehicle id="m60-m62_620" depart="62.00" arrival="142.10">
        <route edges="E11 E0 146417963 146417963-AddedOffRampEdge 145876507 145876507.29 145876507-AddedOffRampEdge 166118952 230600243-AddedOnRampEdge 230600243"/>
    </vehicle>

    <vehicle id="m60-m62_527" depart="68.55" arrival="143.60">
        <route edges="E10 E1 146417963 146417963-AddedOffRampEdge 145876507 145876507.29 145876507-AddedOffRampEdge 166118952 230600243-AddedOnRampEdge 230600243"/>
    </vehicle>

    <vehicle id="m60-m602_541" depart="49.30" arrival="143.65">
        <route edges="E12 E0 146417963 146417963-AddedOffRampEdge 145876507 145876507.29 145876507-AddedOffRampEdge 145876504 1050880328-AddedOnRampEdge 1050880328 145868725-AddedOnRampEdge 145868725"/>
    </vehicle>

    <vehicle id="m602-m60_92" depart="9.55" arrival="144.00">
        <route edges="E3 145868728 145876496 611356040 145876499 158470844#1-AddedOnRampEdge 158470844#1 145852821 145852821.67 145852815 145852815-AddedOffRampEdge 1066957350 145852800#1"/>
    </vehicle>

    <vehicle id="m602-m60_73" depart="7.65" arrival="145.00">
        <route edges="E4 145868728 145876496 611356040 145876499 158470844#1-AddedOnRampEdge 158470844#1 145852821 145852821.67 145852815 145852815-AddedOffRampEdge 1066957350 145852800#1"/>
    </vehicle>

    <vehicle id="m60-north_914" depart="20.50" arrival="145.20">
        <route edges="E13 E2 146417963 146417963-AddedOffRampEdge 158470844#0 158470844#1-AddedOnRampEdge 158470844#1 145852821 145852821.67 145852815 145852815-AddedOffRampEdge 1066957350 145852800#1"/>
    </vehicle>

    <vehicle id="m60-m62_980" depart="72.85" arrival="145.25">
        <route edges="E11 E0 146417963 146417963-AddedOffRampEdge 145876507 145876507.29 145876507-AddedOffRampEdge 166118952 230600243-AddedOnRampEdge 230600243"/>
    </vehicle>

    <vehicle id="m602-m60_276" depart="12.95" arrival="145.30">
        <route edges="E4 145868728 145876496 611356040 145876499 158470844#1-AddedOnRampEdge 158470844#1 145852821 145852821.67 145852815 145852815-AddedOffRampEdge 1066957350 145852800#1"/>
    </vehicle>

    <vehicle id="m62-m60-b_903" depart="29.10" arrival="146.40">
        <route edges="E8 46372495 111538044 296702213 E15 145852821.67 145852815 145852815-AddedOffRampEdge 1066957350 145852800#1"/>
    </vehicle>

    <vehicle id="m62-m60-a_183" depart="30.70" arrival="146.60">
        <route edges="E6 46372495 111538044 296702213 296702213.417 145852821 145852821.67 145852815 145852815-AddedOffRampEdge 1066957350 145852800#1"/>
    </vehicle>

    <vehicle id="m60-worsley_768" depart="25.95" arrival="147.15">
        <route edges="E10 E1 146417963 146417963-AddedOffRampEdge 158470844#0 158470844#1-AddedOnRampEdge 158470844#1 145852821 145852821.67 145852815 145852815-AddedOffRampEdge 145852856"/>
    </vehicle>

    <vehicle id="m602-m60_35" depart="8.55" arrival="147.60">
        <route edges="E5 145868728 145876496 611356040 145876499 158470844#1-AddedOnRampEdge 158470844#1 145852821 145852821.67 145852815 145852815-AddedOffRampEdge 1066957350 145852800#1"/>
    </vehicle>

    <vehicle id="m62-m60-b_693" depart="27.65" arrival="147.60">
        <route edges="E7 46372495 111538044 296702213 E15 145852821.67 145852815 145852815-AddedOffRampEdge 1066957350 145852800#1"/>
    </vehicle>

    <vehicle id="m602-m60_215" depart="10.30" arrival="148.75">
        <route edges="E4 145868728 145876496 611356040 145876499 158470844#1-AddedOnRampEdge 158470844#1 145852821 145852821.67 145852815 145852815-AddedOffRampEdge 1066957350 145852800#1"/>
    </vehicle>

    <vehicle id="m62-m60-b_170" depart="33.35" arrival="148.75">
        <route edges="E6 46372495 111538044 296702213 E15 145852821.67 145852815 145852815-AddedOffRampEdge 1066957350 145852800#1"/>
    </vehicle>

    <vehicle id="m60-north_423" depart="20.55" arrival="148.85">
        <route edges="E9 E1 146417963 146417963-AddedOffRampEdge 158470844#0 158470844#1-AddedOnRampEdge 158470844#1 145852821 145852821.67 145852815 145852815-AddedOffRampEdge 1066957350 145852800#1"/>
    </vehicle>

    <vehicle id="m60-worsley_322" depart="20.50" arrival="148.95">
        <route edges="E12 E0 146417963 146417963-AddedOffRampEdge 158470844#0 158470844#1-AddedOnRampEdge 158470844#1 145852821 145852821.67 145852815 145852815-AddedOffRampEdge 145852856"/>
    </vehicle>

    <vehicle id="m62-m60-b_598" depart="30.25" arrival="149.40">
        <route edges="E7 46372495 111538044 296702213 E15 145852821.67 145852815 145852815-AddedOffRampEdge 1066957350 145852800#1"/>
    </vehicle>

    <vehicle id="m60-north_64" depart="22.35" arrival="149.95">
        <route edges="E11 E0 146417963 146417963-AddedOffRampEdge 158470844#0 158470844#1-AddedOnRampEdge 158470844#1 145852821 145852821.67 145852815 145852815-AddedOffRampEdge 1066957350 145852800#1"/>
    </vehicle>

    <vehicle id="m602-m60_900" depart="12.20" arrival="150.55">
        <route edges="E3 145868728 145876496 611356040 145876499 158470844#1-AddedOnRampEdge 158470844#1 145852821 145852821.67 145852815 145852815-AddedOffRampEdge 1066957350 145852800#1"/>
    </vehicle>

    <vehicle id="m60-m62_532" depart="76.95" arrival="150.85">
        <route edges="E14 E2 146417963 146417963-AddedOffRampEdge 145876507 145876507.29 145876507-AddedOffRampEdge 166118952 230600243-AddedOnRampEdge 230600243"/>
    </vehicle>

    <vehicle id="m62-m60-a_46" depart="31.75" arrival="151.05">
        <route edges="E8 46372495 111538044 296702213 296702213.417 145852821 145852821.67 145852815 145852815-AddedOffRampEdge 1066957350 145852800#1"/>
    </vehicle>

    <vehicle id="m602-m60_869" depart="11.15" arrival="151.65">
        <route edges="E5 145868728 145876496 611356040 145876499 158470844#1-AddedOnRampEdge 158470844#1 145852821 145852821.67 145852815 145852815-AddedOffRampEdge 1066957350 145852800#1"/>
    </vehicle>

    <vehicle id="m60-m602_919" depart="61.45" arrival="151.70">
        <route edges="E10 E1 146417963 146417963-AddedOffRampEdge 145876507 145876507.29 145876507-AddedOffRampEdge 145876504 1050880328-AddedOnRampEdge 1050880328 145868725-AddedOnRampEdge 145868725"/>
    </vehicle>

    <vehicle id="m60-north_468" depart="22.30" arrival="151.95">
        <route edges="E14 E2 146417963 146417963-AddedOffRampEdge 158470844#0 158470844#1-AddedOnRampEdge 158470844#1 145852821 145852821.67 145852815 145852815-AddedOffRampEdge 1066957350 145852800#1"/>
    </vehicle>

    <vehicle id="m60-m602_29" depart="67.40" arrival="153.00">
        <route edges="E12 E0 146417963 146417963-AddedOffRampEdge 145876507 145876507.29 145876507-AddedOffRampEdge 145876504 1050880328-AddedOnRampEdge 1050880328 145868725-AddedOnRampEdge 145868725"/>
    </vehicle>

    <vehicle id="m60-north_722" depart="24.15" arrival="153.15">
        <route edges="E9 E1 146417963 146417963-AddedOffRampEdge 158470844#0 158470844#1-AddedOnRampEdge 158470844#1 145852821 145852821.67 145852815 145852815-AddedOffRampEdge 1066957350 145852800#1"/>
    </vehicle>

    <vehicle id="m62-m60-b_431" depart="32.90" arrival="153.65">
        <route edges="E7 46372495 111538044 296702213 E15 145852821.67 145852815 145852815-AddedOffRampEdge 1066957350 145852800#1"/>
    </vehicle>

    <vehicle id="m60-north_125" depart="27.65" arrival="154.55">
        <route edges="E9 E1 146417963 146417963-AddedOffRampEdge 158470844#0 158470844#1-AddedOnRampEdge 158470844#1 145852821 145852821.67 145852815 145852815-AddedOffRampEdge 1066957350 145852800#1"/>
    </vehicle>

    <vehicle id="m60-north_553" depart="24.10" arrival="154.90">
        <route edges="E12 E0 146417963 146417963-AddedOffRampEdge 158470844#0 158470844#1-AddedOnRampEdge 158470844#1 145852821 145852821.67 145852815 145852815-AddedOffRampEdge 1066957350 145852800#1"/>
    </vehicle>

    <vehicle id="m602-m60_729" depart="15.55" arrival="154.95">
        <route edges="E4 145868728 145876496 611356040 145876499 158470844#1-AddedOnRampEdge 158470844#1 145852821 145852821.67 145852815 145852815-AddedOffRampEdge 1066957350 145852800#1"/>
    </vehicle>

    <vehicle id="m60-north_453" depart="24.15" arrival="155.05">
        <route edges="E13 E2 146417963 146417963-AddedOffRampEdge 158470844#0 158470844#1-AddedOnRampEdge 158470844#1 145852821 145852821.67 145852815 145852815-AddedOffRampEdge 1066957350 145852800#1"/>
    </vehicle>

    <vehicle id="m602-m60_252" depart="13.80" arrival="155.70">
        <route edges="E5 145868728 145876496 611356040 145876499 158470844#1-AddedOnRampEdge 158470844#1 145852821 145852821.67 145852815 145852815-AddedOffRampEdge 1066957350 145852800#1"/>
    </vehicle>

    <vehicle id="m62-m60-b_156" depart="34.40" arrival="156.15">
        <route edges="E8 46372495 111538044 296702213 E15 145852821.67 145852815 145852815-AddedOffRampEdge 1066957350 145852800#1"/>
    </vehicle>

    <vehicle id="m602-m60_131" depart="14.85" arrival="156.25">
        <route edges="E3 145868728 145876496 611356040 145876499 158470844#1-AddedOnRampEdge 158470844#1 145852821 145852821.67 145852815 145852815-AddedOffRampEdge 1066957350 145852800#1"/>
    </vehicle>

    <vehicle id="m60-north_239" depart="25.95" arrival="156.85">
        <route edges="E11 E0 146417963 146417963-AddedOffRampEdge 158470844#0 158470844#1-AddedOnRampEdge 158470844#1 145852821 145852821.67 145852815 145852815-AddedOffRampEdge 1066957350 145852800#1"/>
    </vehicle>

    <vehicle id="m602-m60_94" depart="16.45" arrival="157.95">
        <route edges="E5 145868728 145876496 611356040 145876499 158470844#1-AddedOnRampEdge 158470844#1 145852821 145852821.67 145852815 145852815-AddedOffRampEdge 1066957350 145852800#1"/>
    </vehicle>

    <vehicle id="m62-m60-b_144" depart="35.55" arrival="158.40">
        <route edges="E7 46372495 111538044 296702213 E15 145852821.67 145852815 145852815-AddedOffRampEdge 1066957350 145852800#1"/>
    </vehicle>

    <vehicle id="m60-worsley_157" depart="29.40" arrival="159.05">
        <route edges="E10 E1 146417963 146417963-AddedOffRampEdge 158470844#0 158470844#1-AddedOnRampEdge 158470844#1 145852821 145852821.67 145852815 145852815-AddedOffRampEdge 145852856"/>
    </vehicle>

    <vehicle id="m60-north_738" depart="31.15" arrival="160.75">
        <route edges="E9 E1 146417963 146417963-AddedOffRampEdge 158470844#0 158470844#1-AddedOnRampEdge 158470844#1 145852821 145852821.67 145852815 145852815-AddedOffRampEdge 1066957350 145852800#1"/>
    </vehicle>

    <vehicle id="m602-m60_671" depart="18.15" arrival="161.75">