<?xml version="1.0" encoding="UTF-8"?>

<!-- generated on 2024-12-09 12:22:05 by Eclipse SUMO sumo Version 1.21.0
<sumoConfiguration xmlns:xsi="http://www.w3.org/2001/XMLSchema-instance" xsi:noNamespaceSchemaLocation="http://sumo.dlr.de/xsd/sumoConfiguration.xsd">

    <input>
        <net-file value="interchange.net.xml"/>
        <route-files value="interchangeTrafficCustom.rou.xml"/>
    </input>

    <output>
        <tripinfo-output value="data/trip_info.xml"/>
        <vehroute-output value="data/vehicle_routes.xml"/>
    </output>

    <time>
        <begin value="0"/>
        <end value="1000"/>
        <step-length value="0.05"/>
    </time>

    <gui_only>
        <delay value="200"/>
    </gui_only>

</sumoConfiguration>
-->

<routes xmlns:xsi="http://www.w3.org/2001/XMLSchema-instance" xsi:noNamespaceSchemaLocation="http://sumo.dlr.de/xsd/routes_file.xsd">
    <vehicle id="286" depart="3.00" arrival="91.05">
        <route edges="E12 E0 146417963 146417963-AddedOffRampEdge 158470844#0 158470844#1-AddedOnRampEdge 158470844#1 145852821 145852815 145852815-AddedOffRampEdge 1066957350 145852800#1"/>
    </vehicle>

    <vehicle id="994" depart="1.20" arrival="92.90">
        <route edges="E10 E1 146417963 146417963-AddedOffRampEdge 158470844#0 158470844#1-AddedOnRampEdge 158470844#1 145852821 145852815 145852815-AddedOffRampEdge 1066957350 145852800#1"/>
    </vehicle>

    <vehicle id="490" depart="1.75" arrival="93.40">
        <route edges="E13 E2 146417963 146417963-AddedOffRampEdge 158470844#0 158470844#1-AddedOnRampEdge 158470844#1 145852821 145852815 145852815-AddedOffRampEdge 1066957350 145852800#1"/>
    </vehicle>

    <vehicle id="783" depart="1.70" arrival="98.70">
        <route edges="E6 46372495 111538044 296702213 145852821 145852815 145852815-AddedOffRampEdge 1066957350 145852800#1"/>
    </vehicle>

    <vehicle id="351" depart="4.10" arrival="100.55">
        <route edges="E6 46372495 111538044 296702213 145852821 145852815 145852815-AddedOffRampEdge 1066957350 145852800#1"/>
    </vehicle>

    <vehicle id="811" depart="3.10" arrival="102.05">
        <route edges="E8 46372495 111538044 296702213 145852821 145852815 145852815-AddedOffRampEdge 1066957350 145852800#1"/>
    </vehicle>

    <vehicle id="198" depart="1.65" arrival="105.15">
        <route edges="E9 E1 146417963 146417963-AddedOffRampEdge 158470844#0 158470844#1-AddedOnRampEdge 158470844#1 145852821 145852815 145852815-AddedOffRampEdge 1066957350 145852800#1"/>
    </vehicle>

    <vehicle id="1094" depart="3.20" arrival="107.35">
        <route edges="E7 46372495 111538044 296702213 145852821 145852815 145852815-AddedOffRampEdge 1066957350 145852800#1"/>
    </vehicle>

    <vehicle id="415" depart="5.70" arrival="107.65">
        <route edges="E8 46372495 111538044 296702213 145852821 145852815 145852815-AddedOffRampEdge 1066957350 145852800#1"/>
    </vehicle>

    <vehicle id="982" depart="3.70" arrival="109.05">
        <route edges="E11 E0 146417963 146417963-AddedOffRampEdge 158470844#0 158470844#1-AddedOnRampEdge 158470844#1 145852821 145852815 145852815-AddedOffRampEdge 145852856"/>
    </vehicle>

    <vehicle id="1069" depart="9.05" arrival="111.30">
        <route edges="E6 46372495 111538044 296702213 145852821 145852815 145852815-AddedOffRampEdge 1066957350 145852800#1"/>
    </vehicle>

    <vehicle id="321" depart="6.55" arrival="111.60">
        <route edges="E6 46372495 111538044 296702213 145852821 145852815 145852815-AddedOffRampEdge 1066957350 145852800#1"/>
    </vehicle>

    <vehicle id="954" depart="10.90" arrival="112.50">
        <route edges="E8 46372495 111538044 296702213 145852821 145852815 145852815-AddedOffRampEdge 1066957350 145852800#1"/>
    </vehicle>

    <vehicle id="68" depart="5.85" arrival="113.05">
        <route edges="E7 46372495 111538044 296702213 145852821 145852815 145852815-AddedOffRampEdge 1066957350 145852800#1"/>
    </vehicle>

    <vehicle id="1056" depart="2.35" arrival="113.10">
        <route edges="E3 145868728 145876496 611356040 145876499 158470844#1-AddedOnRampEdge 158470844#1 145852821 145852815 145852815-AddedOffRampEdge 1066957350 145852800#1"/>
    </vehicle>

    <vehicle id="758" depart="13.55" arrival="113.80">
        <route edges="E8 46372495 111538044 296702213 145852821 145852815 145852815-AddedOffRampEdge 1066957350 145852800#1"/>
    </vehicle>

    <vehicle id="875" depart="8.50" arrival="115.05">
        <route edges="E7 46372495 111538044 296702213 145852821 145852815 145852815-AddedOffRampEdge 1066957350 145852800#1"/>
    </vehicle>

    <vehicle id="791" depart="16.15" arrival="116.30">
        <route edges="E8 46372495 111538044 296702213 145852821 145852815 145852815-AddedOffRampEdge 1066957350 145852800#1"/>
    </vehicle>

    <vehicle id="522" depart="8.30" arrival="116.60">
        <route edges="E8 46372495 111538044 296702213 145852821 145852815 145852815-AddedOffRampEdge 1066957350 145852800#1"/>
    </vehicle>

    <vehicle id="881" depart="2.95" arrival="117.50">
        <route edges="E5 145868728 145876496 611356040 145876499 158470844#1-AddedOnRampEdge 158470844#1 145852821 145852815 145852815-AddedOffRampEdge 1066957350 145852800#1"/>
    </vehicle>

    <vehicle id="745" depart="7.25" arrival="118.45">
        <route edges="E10 E1 146417963 146417963-AddedOffRampEdge 158470844#0 158470844#1-AddedOnRampEdge 158470844#1 145852821 145852815 145852815-AddedOffRampEdge 1066957350 145852800#1"/>
    </vehicle>

    <vehicle id="373" depart="11.60" arrival="118.95">
        <route edges="E6 46372495 111538044 296702213 145852821 145852815 145852815-AddedOffRampEdge 1066957350 145852800#1"/>
    </vehicle>

    <vehicle id="1086" depart="6.05" arrival="119.05">
        <route edges="E12 E0 146417963 146417963-AddedOffRampEdge 158470844#0 158470844#1-AddedOnRampEdge 158470844#1 145852821 145852815 145852815-AddedOffRampEdge 145852856"/>
    </vehicle>

    <vehicle id="471" depart="4.35" arrival="119.55">
        <route edges="E13 E2 146417963 146417963-AddedOffRampEdge 158470844#0 158470844#1-AddedOnRampEdge 158470844#1 145852821 145852815 145852815-AddedOffRampEdge 145852856"/>
    </vehicle>

    <vehicle id="1102" depart="8.85" arrival="119.90">
        <route edges="E11 E0 146417963 146417963-AddedOffRampEdge 158470844#0 158470844#1-AddedOnRampEdge 158470844#1 145852821 145852815 145852815-AddedOffRampEdge 1066957350 145852800#1"/>
    </vehicle>

    <vehicle id="427" depart="2.15" arrival="120.45">
        <route edges="E14 E2 146417963 146417963-AddedOffRampEdge 158470844#0 158470844#1-AddedOnRampEdge 158470844#1 145852821 145852815 145852815-AddedOffRampEdge 1066957350 145852800#1"/>
    </vehicle>

    <vehicle id="423" depart="6.95" arrival="121.10">
        <route edges="E13 E2 146417963 146417963-AddedOffRampEdge 158470844#0 158470844#1-AddedOnRampEdge 158470844#1 145852821 145852815 145852815-AddedOffRampEdge 1066957350 145852800#1"/>
    </vehicle>

    <vehicle id="1064" depart="9.30" arrival="121.15">
        <route edges="E14 E2 146417963 146417963-AddedOffRampEdge 158470844#0 158470844#1-AddedOnRampEdge 158470844#1 145852821 145852815 145852815-AddedOffRampEdge 1066957350 145852800#1"/>
    </vehicle>

    <vehicle id="683" depart="11.10" arrival="121.40">
        <route edges="E7 46372495 111538044 296702213 145852821 145852815 145852815-AddedOffRampEdge 1066957350 145852800#1"/>
    </vehicle>

    <vehicle id="739" depart="24.00" arrival="122.30">
        <route edges="E8 46372495 111538044 296702213 145852821 145852815 145852815-AddedOffRampEdge 1066957350 145852800#1"/>
    </vehicle>

    <vehicle id="579" depart="21.45" arrival="123.00">
        <route edges="E8 46372495 111538044 296702213 145852821 145852815 145852815-AddedOffRampEdge 1066957350 145852800#1"/>
    </vehicle>

    <vehicle id="1182" depart="13.75" arrival="125.25">
        <route edges="E7 46372495 111538044 296702213 145852821 145852815 145852815-AddedOffRampEdge 1066957350 145852800#1"/>
    </vehicle>

    <vehicle id="566" depart="3.35" arrival="125.35">
        <route edges="E4 145868728 145876496 611356040 145876499 158470844#1-AddedOnRampEdge 158470844#1 145852821 145852815 145852815-AddedOffRampEdge 1066957350 145852800#1"/>
    </vehicle>

    <vehicle id="700" depart="4.95" arrival="126.60">
        <route edges="E3 145868728 145876496 611356040 145876499 158470844#1-AddedOnRampEdge 158470844#1 145852821 145852815 145852815-AddedOffRampEdge 1066957350 145852800#1"/>
    </vehicle>

    <vehicle id="504" depart="26.60" arrival="126.75">
        <route edges="E8 46372495 111538044 296702213 145852821 145852815 145852815-AddedOffRampEdge 1066957350 145852800#1"/>
    </vehicle>

    <vehicle id="175" depart="6.45" arrival="126.85">
        <route edges="E9 E1 146417963 146417963-AddedOffRampEdge 158470844#0 158470844#1-AddedOnRampEdge 158470844#1 145852821 145852815 145852815-AddedOffRampEdge 145852856"/>
    </vehicle>

    <vehicle id="35" depart="9.00" arrival="129.55">
        <route edges="E12 E0 146417963 146417963-AddedOffRampEdge 158470844#0 158470844#1-AddedOnRampEdge 158470844#1 145852821 145852815 145852815-AddedOffRampEdge 1066957350 145852800#1"/>
    </vehicle>

    <vehicle id="989" depart="10.85" arrival="130.50">
        <route edges="E13 E2 146417963 146417963-AddedOffRampEdge 158470844#0 158470844#1-AddedOnRampEdge 158470844#1 145852821 145852815 145852815-AddedOffRampEdge 1066957350 145852800#1"/>
    </vehicle>

    <vehicle id="628" depart="16.40" arrival="131.75">
        <route edges="E7 46372495 111538044 296702213 145852821 145852815 145852815-AddedOffRampEdge 1066957350 145852800#1"/>
    </vehicle>

    <vehicle id="217" depart="18.80" arrival="132.10">
        <route edges="E8 46372495 111538044 296702213 145852821 145852815 145852815-AddedOffRampEdge 1066957350 145852800#1"/>
    </vehicle>

    <vehicle id="884" depart="12.00" arrival="132.25">
        <route edges="E11 E0 146417963 146417963-AddedOffRampEdge 158470844#0 158470844#1-AddedOnRampEdge 158470844#1 145852821 145852815 145852815-AddedOffRampEdge 1066957350 145852800#1"/>
    </vehicle>

    <vehicle id="12" depart="27.95" arrival="132.60">
        <route edges="E6 46372495 111538044 296702213 145852821 145852815 145852815-AddedOffRampEdge 1066957350 145852800#1"/>
    </vehicle>

    <vehicle id="260" depart="12.80" arrival="133.80">
        <route edges="E14 E2 146417963 146417963-AddedOffRampEdge 158470844#0 158470844#1-AddedOnRampEdge 158470844#1 145852821 145852815 145852815-AddedOffRampEdge 1066957350 145852800#1"/>
    </vehicle>

    <vehicle id="112" depart="13.70" arrival="133.95">
        <route edges="E12 E0 146417963 146417963-AddedOffRampEdge 158470844#0 158470844#1-AddedOnRampEdge 158470844#1 145852821 145852815 145852815-AddedOffRampEdge 1066957350 145852800#1"/>
    </vehicle>

    <vehicle id="929" depart="29.65" arrival="134.80">
        <route edges="E7 46372495 111538044 296702213 145852821 145852815 145852815-AddedOffRampEdge 1066957350 145852800#1"/>
    </vehicle>

    <vehicle id="1178" depart="16.95" arrival="136.05">
        <route edges="E14 E2 146417963 146417963-AddedOffRampEdge 158470844#0 158470844#1-AddedOnRampEdge 158470844#1 145852821 145852815 145852815-AddedOffRampEdge 1066957350 145852800#1"/>
    </vehicle>

    <vehicle id="67" depart="9.10" arrival="137.15">
        <route edges="E9 E1 146417963 146417963-AddedOffRampEdge 158470844#0 158470844#1-AddedOnRampEdge 158470844#1 145852821 145852815 145852815-AddedOffRampEdge 1066957350 145852800#1"/>
    </vehicle>

    <vehicle id="379" depart="11.75" arrival="137.25">
        <route edges="E10 E1 146417963 146417963-AddedOffRampEdge 158470844#0 158470844#1-AddedOnRampEdge 158470844#1 145852821 145852815 145852815-AddedOffRampEdge 1066957350 145852800#1"/>
    </vehicle>

    <vehicle id="796" depart="15.05" arrival="138.20">
        <route edges="E13 E2 146417963 146417963-AddedOffRampEdge 158470844#0 158470844#1-AddedOnRampEdge 158470844#1 145852821 145852815 145852815-AddedOffRampEdge 1066957350 145852800#1"/>
    </vehicle>

    <vehicle id="657" depart="31.20" arrival="138.55">
        <route edges="E6 46372495 111538044 296702213 145852821 145852815 145852815-AddedOffRampEdge 1066957350 145852800#1"/>
    </vehicle>

    <vehicle id="846" depart="36.05" arrival="138.60">
        <route edges="E8 46372495 111538044 296702213 145852821 145852815 145852815-AddedOffRampEdge 1066957350 145852800#1"/>
    </vehicle>

    <vehicle id="611" depart="19.05" arrival="139.45">
        <route edges="E7 46372495 111538044 296702213 145852821 145852815 145852815-AddedOffRampEdge 1066957350 145852800#1"/>
    </vehicle>

    <vehicle id="1149" depart="15.85" arrival="139.75">
        <route edges="E11 E0 146417963 146417963-AddedOffRampEdge 158470844#0 158470844#1-AddedOnRampEdge 158470844#1 145852821 145852815 145852815-AddedOffRampEdge 1066957350 145852800#1"/>
    </vehicle>

    <vehicle id="382" depart="20.50" arrival="140.65">
        <route edges="E6 46372495 111538044 296702213 145852821 145852815 145852815-AddedOffRampEdge 1066957350 145852800#1"/>
    </vehicle>

    <vehicle id="129" depart="17.55" arrival="140.90">
        <route edges="E12 E0 146417963 146417963-AddedOffRampEdge 158470844#0 158470844#1-AddedOnRampEdge 158470844#1 145852821 145852815 145852815-AddedOffRampEdge 145852856"/>
    </vehicle>

    <vehicle id="1089" depart="19.55" arrival="141.10">
        <route edges="E11 E0 146417963 146417963-AddedOffRampEdge 158470844#0 158470844#1-AddedOnRampEdge 158470844#1 145852821 145852815 145852815-AddedOffRampEdge 1066957350 145852800#1"/>
    </vehicle>

    <vehicle id="261" depart="35.25" arrival="141.80">
        <route edges="E6 46372495 111538044 296702213 145852821 145852815 145852815-AddedOffRampEdge 1066957350 145852800#1"/>
    </vehicle>

    <vehicle id="1078" depart="41.35" arrival="143.30">
        <route edges="E8 46372495 111538044 296702213 145852821 145852815 145852815-AddedOffRampEdge 1066957350 145852800#1"/>
    </vehicle>

    <vehicle id="948" depart="39.80" arrival="144.10">
        <route edges="E6 46372495 111538044 296702213 145852821 145852815 145852815-AddedOffRampEdge 1066957350 145852800#1"/>
    </vehicle>

    <vehicle id="1010" depart="43.95" arrival="144.50">
        <route edges="E8 46372495 111538044 296702213 145852821 145852815 145852815-AddedOffRampEdge 1066957350 145852800#1"/>
    </vehicle>

    <vehicle id="93" depart="5.60" arrival="144.60">
        <route edges="E5 145868728 145876496 611356040 145876499 158470844#1-AddedOnRampEdge 158470844#1 145852821 145852815 145852815-AddedOffRampEdge 1066957350 145852800#1"/>
    </vehicle>

    <vehicle id="932" depart="13.00" arrival="145.75">
        <route edges="E9 E1 146417963 146417963-AddedOffRampEdge 158470844#0 158470844#1-AddedOnRampEdge 158470844#1 145852821 145852815 145852815-AddedOffRampEdge 1066957350 145852800#1"/>
    </vehicle>

    <vehicle id="1090" depart="21.75" arrival="146.80">
        <route edges="E7 46372495 111538044 296702213 145852821 145852815 145852815-AddedOffRampEdge 1066957350 145852800#1"/>
    </vehicle>

    <vehicle id="770" depart="45.50" arrival="146.90">
        <route edges="E7 46372495 111538044 296702213 145852821 145852815 145852815-AddedOffRampEdge 1066957350 145852800#1"/>
    </vehicle>

    <vehicle id="1142" depart="20.65" arrival="147.10">
        <route edges="E14 E2 146417963 146417963-AddedOffRampEdge 158470844#0 158470844#1-AddedOnRampEdge 158470844#1 145852821 145852815 145852815-AddedOffRampEdge 1066957350 145852800#1"/>
    </vehicle>

    <vehicle id="189" depart="48.10" arrival="148.20">
        <route edges="E7 46372495 111538044 296702213 145852821 145852815 145852815-AddedOffRampEdge 1066957350 145852800#1"/>
    </vehicle>

    <vehicle id="190" depart="25.60" arrival="148.40">
        <route edges="E6 46372495 111538044 296702213 145852821 145852815 145852815-AddedOffRampEdge 1066957350 145852800#1"/>
    </vehicle>

    <vehicle id="557" depart="5.95" arrival="149.55">
        <route edges="E4 145868728 145876496 611356040 145876499 158470844#1-AddedOnRampEdge 158470844#1 145852821 145852815 145852815-AddedOffRampEdge 1066957350 145852800#1"/>
    </vehicle>

    <vehicle id="892" depart="22.45" arrival="150.35">
        <route edges="E13 E2 146417963 146417963-AddedOffRampEdge 158470844#0 158470844#1-AddedOnRampEdge 158470844#1 145852821 145852815 145852815-AddedOffRampEdge 145852856"/>
    </vehicle>

    <vehicle id="375" depart="18.95" arrival="150.75">
        <route edges="E13 E2 146417963 146417963-AddedOffRampEdge 158470844#0 158470844#1-AddedOnRampEdge 158470844#1 145852821 145852815 145852815-AddedOffRampEdge 145852856"/>
    </vehicle>

    <vehicle id="256" depart="24.35" arrival="151.10">
        <route edges="E7 46372495 111538044 296702213 145852821 145852815 145852815-AddedOffRampEdge 1066957350 145852800#1"/>
    </vehicle>

    <vehicle id="419" depart="23.25" arrival="152.15">
        <route edges="E11 E0 146417963 146417963-AddedOffRampEdge 158470844#0 158470844#1-AddedOnRampEdge 158470844#1 145852821 145852815 145852815-AddedOffRampEdge 1066957350 145852800#1"/>
    </vehicle>

    <vehicle id="633" depart="27.00" arrival="152.20">
        <route edges="E7 46372495 111538044 296702213 145852821 145852815 145852815-AddedOffRampEdge 1066957350 145852800#1"/>
    </vehicle>

    <vehicle id="1104" depart="7.55" arrival="152.40">
        <route edges="E3 145868728 145876496 611356040 145876499 158470844#1-AddedOnRampEdge 158470844#1 145852821 145852815 145852815-AddedOffRampEdge 1066957350 145852800#1"/>
    </vehicle>

    <vehicle id="38" depart="49.25" arrival="153.40">
        <route edges="E8 46372495 111538044 296702213 145852821 145852815 145852815-AddedOffRampEdge 1066957350 145852800#1"/>
    </vehicle>

    <vehicle id="714" depart="25.05" arrival="153.65">
        <route edges="E12 E0 146417963 146417963-AddedOffRampEdge 158470844#0 158470844#1-AddedOnRampEdge 158470844#1 145852821 145852815 145852815-AddedOffRampEdge 1066957350 145852800#1"/>
    </vehicle>

    <vehicle id="712" depart="24.35" arrival="154.00">
        <route edges="E14 E2 146417963 146417963-AddedOffRampEdge 158470844#0 158470844#1-AddedOnRampEdge 158470844#1 145852821 145852815 145852815-AddedOffRampEdge 1066957350 145852800#1"/>
    </vehicle>

    <vehicle id="246" depart="29.80" arrival="154.65">
        <route edges="E13 E2 146417963 146417963-AddedOffRampEdge 158470844#0 158470844#1-AddedOnRampEdge 158470844#1 145852821 145852815 145852815-AddedOffRampEdge 1066957350 145852800#1"/>
    </vehicle>

    <vehicle id="98" depart="50.75" arrival="154.90">
        <route edges="E7 46372495 111538044 296702213 145852821 145852815 145852815-AddedOffRampEdge 1066957350 145852800#1"/>
    </vehicle>

    <vehicle id="966" depart="27.90" arrival="155.15">
        <route edges="E14 E2 146417963 146417963-AddedOffRampEdge 158470844#0 158470844#1-AddedOnRampEdge 158470844#1 145852821 145852815 145852815-AddedOffRampEdge 1066957350 145852800#1"/>
    </vehicle>

    <vehicle id="1011" depart="52.35" arrival="155.80">
        <route edges="E6 46372495 111538044 296702213 145852821 145852815 145852815-AddedOffRampEdge 1066957350 145852800#1"/>
    </vehicle>

    <vehicle id="467" depart="15.20" arrival="156.30">
        <route edges="E10 E1 146417963 146417963-AddedOffRampEdge 158470844#0 158470844#1-AddedOnRampEdge 158470844#1 145852821 145852815 145852815-AddedOffRampEdge 145852856"/>
    </vehicle>

    <vehicle id="130" depart="8.20" arrival="156.95">
        <route edges="E5 145868728 145876496 611356040 145876499 158470844#1-AddedOnRampEdge 158470844#1 145852821 145852815 145852815-AddedOffRampEdge 1066957350 145852800#1"/>
    </vehicle>

    <vehicle id="1121" depart="26.90" arrival="157.20">
        <route edges="E11 E0 146417963 146417963-AddedOffRampEdge 158470844#0 158470844#1-AddedOnRampEdge 158470844#1 145852821 145852815 145852815-AddedOffRampEdge 1066957350 145852800#1"/>
    </vehicle>

    <vehicle id="821" depart="29.20" arrival="157.50">
        <route edges="E8 46372495 111538044 296702213 145852821 145852815 145852815-AddedOffRampEdge 1066957350 145852800#1"/>
    </vehicle>

    <vehicle id="1044" depart="54.55" arrival="157.75">
        <route edges="E8 46372495 111538044 296702213 145852821 145852815 145852815-AddedOffRampEdge 1066957350 145852800#1"/>
    </vehicle>

    <vehicle id="560" depart="30.50" arrival="159.05">
        <route edges="E11 E0 146417963 146417963-AddedOffRampEdge 158470844#0 158470844#1-AddedOnRampEdge 158470844#1 145852821 145852815 145852815-AddedOffRampEdge 1066957350 145852800#1"/>
    </vehicle>

    <vehicle id="238" depart="17.25" arrival="159.55">
        <route edges="E9 E1 146417963 146417963-AddedOffRampEdge 158470844#0 158470844#1-AddedOnRampEdge 158470844#1 145852821 145852815 145852815-AddedOffRampEdge 145852856"/>
    </vehicle>

    <vehicle id="1004" depart="40.25" arrival="161.15">
        <route edges="E7 46372495 111538044 296702213 145852821 145852815 145852815-AddedOffRampEdge 1066957350 145852800#1"/>
    </vehicle>

    <vehicle id="475" depart="31.60" arrival="161.70">
        <route edges="E14 E2 146417963 146417963-AddedOffRampEdge 158470844#0 158470844#1-AddedOnRampEdge 158470844#1 145852821 145852815 145852815-AddedOffRampEdge 1066957350 145852800#1"/>
    </vehicle>

    <vehicle id="197" depart="59.75" arrival="163.65">
        <route edges="E8 46372495 111538044 296702213 145852821 145852815 145852815-AddedOffRampEdge 1066957350 145852800#1"/>
    </vehicle>

    <vehicle id="939" depart="31.80" arrival="164.00">
        <route edges="E8 46372495 111538044 296702213 145852821 145852815 145852815-AddedOffRampEdge 1066957350 145852800#1"/>
    </vehicle>

    <vehicle id="927" depart="28.65" arrival="164.05">
        <route edges="E12 E0 146417963 146417963-AddedOffRampEdge 158470844#0 158470844#1-AddedOnRampEdge 158470844#1 145852821 145852815 145852815-AddedOffRampEdge 145852856"/>
    </vehicle>

    <vehicle id="381" depart="31.75" arrival="165.15">
        <route edges="E9 E1 146417963 146417963-AddedOffRampEdge 158470844#0 158470844#1-AddedOnRampEdge 158470844#1 145852821 145852815 145852815-AddedOffRampEdge 1066957350 145852800#1"/>
    </vehicle>

    <vehicle id="455" depart="34.10" arrival="165.50">
        <route edges="E11 E0 146417963 146417963-AddedOffRampEdge 158470844#0 158470844#1-AddedOnRampEdge 158470844#1 145852821 145852815 145852815-AddedOffRampEdge 1066957350 145852800#1"/>
    </vehicle>

    <vehicle id="429" depart="32.30" arrival="165.70">
        <route edges="E7 46372495 111538044 296702213 145852821 145852815 145852815-AddedOffRampEdge 1066957350 145852800#1"/>
    </vehicle>

    <vehicle id="435" depart="42.90" arrival="166.05">
        <route edges="E7 46372495 111538044 296702213 145852821 145852815 145852815-AddedOffRampEdge 1066957350 145852800#1"/>
    </vehicle>

    <vehicle id="1183" depart="33.40" arrival="166.40">
        <route edges="E13 E2 146417963 146417963-AddedOffRampEdge 158470844#0 158470844#1-AddedOnRampEdge 158470844#1 145852821 145852815 145852815-AddedOffRampEdge 1066957350 145852800#1"/>
    </vehicle>

    <vehicle id="542" depart="57.15" arrival="167.00">
        <route edges="E8 46372495 111538044 296702213 145852821 145852815 145852815-AddedOffRampEdge 1066957350 145852800#1"/>
    </vehicle>

    <vehicle id="436" depart="19.20" arrival="167.25">
        <route edges="E10 E1 146417963 146417963-AddedOffRampEdge 158470844#0 158470844#1-AddedOnRampEdge 158470844#1 145852821 145852815 145852815-AddedOffRampEdge 145852856"/>
    </vehicle>

    <vehicle id="1166" depart="56.05" arrival="167.30">
        <route edges="E7 46372495 111538044 296702213 145852821 145852815 145852815-AddedOffRampEdge 1066957350 145852800#1"/>
    </vehicle>

    <vehicle id="592" depart="8.55" arrival="168.25">
        <route edges="E4 145868728 145876496 611356040 145876499 158470844#1-AddedOnRampEdge 158470844#1 145852821 145852815 145852815-AddedOffRampEdge 1066957350 145852800#1"/>
    </vehicle>

    <vehicle id="412" depart="35.15" arrival="168.70">
        <route edges="E14 E2 146417963 146417963-AddedOffRampEdge 158470844#0 158470844#1-AddedOnRampEdge 158470844#1 145852821 145852815 145852815-AddedOffRampEdge 1066957350 145852800#1"/>
    </vehicle>

    <vehicle id="1130" depart="21.30" arrival="168.85">
        <route edges="E12 E0 146417963 146417963-AddedOffRampEdge 158470844#0 158470844#1-AddedOnRampEdge 158470844#1 145852821 145852815 145852815-AddedOffRampEdge 1066957350 145852800#1"/>
    </vehicle>

    <vehicle id="641" depart="34.95" arrival="169.80">
        <route edges="E7 46372495 111538044 296702213 145852821 145852815 145852815-AddedOffRampEdge 1066957350 145852800#1"/>
    </vehicle>

    <vehicle id="679" depart="26.15" arrival="170.00">
        <route edges="E13 E2 146417963 146417963-AddedOffRampEdge 158470844#0 158470844#1-AddedOnRampEdge 158470844#1 145852821 145852815 145852815-AddedOffRampEdge 1066957350 145852800#1"/>
    </vehicle>

    <vehicle id="44" depart="36.95" arrival="170.35">
        <route edges="E13 E2 146417963 146417963-AddedOffRampEdge 158470844#0 158470844#1-AddedOnRampEdge 158470844#1 145852821 145852815 145852815-AddedOffRampEdge 1066957350 145852800#1"/>
    </vehicle>

    <vehicle id="921" depart="62.35" arrival="171.10">
        <route edges="E8 46372495 111538044 296702213 145852821 145852815 145852815-AddedOffRampEdge 1066957350 145852800#1"/>
    </vehicle>

    <vehicle id="575" depart="21.15" arrival="171.20">
        <route edges="E9 E1 146417963 146417963-AddedOffRampEdge 158470844#0 158470844#1-AddedOnRampEdge 158470844#1 145852821 145852815 145852815-AddedOffRampEdge 1066957350 145852800#1"/>
    </vehicle>

    <vehicle id="422" depart="38.70" arrival="172.25">
        <route edges="E8 46372495 111538044 296702213 145852821 145852815 145852815-AddedOffRampEdge 1066957350 145852800#1"/>
    </vehicle>

    <vehicle id="893" depart="29.95" arrival="172.35">
        <route edges="E10 E1 146417963 146417963-AddedOffRampEdge 158470844#0 158470844#1-AddedOnRampEdge 158470844#1 145852821 145852815 145852815-AddedOffRampEdge 1066957350 145852800#1"/>
    </vehicle>

    <vehicle id="408" depart="61.30" arrival="172.45">
        <route edges="E7 46372495 111538044 296702213 145852821 145852815 145852815-AddedOffRampEdge 1066957350 145852800#1"/>
    </vehicle>

    <vehicle id="839" depart="38.70" arrival="172.70">
        <route edges="E14 E2 146417963 146417963-AddedOffRampEdge 158470844#0 158470844#1-AddedOnRampEdge 158470844#1 145852821 145852815 145852815-AddedOffRampEdge 1066957350 145852800#1"/>
    </vehicle>

    <vehicle id="1157" depart="65.00" arrival="173.50">
        <route edges="E8 46372495 111538044 296702213 145852821 145852815 145852815-AddedOffRampEdge 1066957350 145852800#1"/>
    </vehicle>

    <vehicle id="135" depart="37.75" arrival="173.55">
        <route edges="E11 E0 146417963 146417963-AddedOffRampEdge 158470844#0 158470844#1-AddedOnRampEdge 158470844#1 145852821 145852815 145852815-AddedOffRampEdge 1066957350 145852800#1"/>
    </vehicle>

    <vehicle id="662" depart="35.85" arrival="174.00">
        <route edges="E12 E0 146417963 146417963-AddedOffRampEdge 158470844#0 158470844#1-AddedOnRampEdge 158470844#1 145852821 145852815 145852815-AddedOffRampEdge 145852856"/>
    </vehicle>

    <vehicle id="1168" depart="39.40" arrival="174.80">
        <route edges="E12 E0 146417963 146417963-AddedOffRampEdge 158470844#0 158470844#1-AddedOnRampEdge 158470844#1 145852821 145852815 145852815-AddedOffRampEdge 1066957350 145852800#1"/>
    </vehicle>

    <vehicle id="604" depart="63.95" arrival="174.90">
        <route edges="E7 46372495 111538044 296702213 145852821 145852815 145852815-AddedOffRampEdge 1066957350 145852800#1"/>
    </vehicle>

    <vehicle id="369" depart="41.35" arrival="175.10">
        <route edges="E11 E0 146417963 146417963-AddedOffRampEdge 158470844#0 158470844#1-AddedOnRampEdge 158470844#1 145852821 145852815 145852815-AddedOffRampEdge 1066957350 145852800#1"/>
    </vehicle>

    <vehicle id="525" depart="40.65" arrival="176.05">
        <route edges="E13 E2 146417963 146417963-AddedOffRampEdge 158470844#0 158470844#1-AddedOnRampEdge 158470844#1 145852821 145852815 145852815-AddedOffRampEdge 1066957350 145852800#1"/>
    </vehicle>

    <vehicle id="958" depart="42.40" arrival="176.35">
        <route edges="E14 E2 146417963 146417963-AddedOffRampEdge 158470844#0 158470844#1-AddedOnRampEdge 158470844#1 145852821 145852815 145852815-AddedOffRampEdge 1066957350 145852800#1"/>
    </vehicle>

    <vehicle id="151" depart="10.20" arrival="176.80">
        <route edges="E3 145868728 145876496 611356040 145876499 158470844#1-AddedOnRampEdge 158470844#1 145852821 145852815 145852815-AddedOffRampEdge 1066957350 145852800#1"/>
    </vehicle>

    <vehicle id="705" depart="43.00" arrival="177.50">
        <route edges="E12 E0 146417963 146417963-AddedOffRampEdge 158470844#0 158470844#1-AddedOnRampEdge 158470844#1 145852821 145852815 145852815-AddedOffRampEdge 1066957350 145852800#1"/>
    </vehicle>

    <vehicle id="214" depart="69.20" arrival="179.00">
        <route edges="E7 46372495 111538044 296702213 145852821 145852815 145852815-AddedOffRampEdge 1066957350 145852800#1"/>
    </vehicle>

    <vehicle id="42" depart="37.60" arrival="179.50">
        <route edges="E7 46372495 111538044 296702213 145852821 145852815 145852815-AddedOffRampEdge 1066957350 145852800#1"/>
    </vehicle>

    <vehicle id="454" depart="66.55" arrival="179.85">
        <route edges="E7 46372495 111538044 296702213 145852821 145852815 145852815-AddedOffRampEdge 1066957350 145852800#1"/>
    </vehicle>

    <vehicle id="1026" depart="47.85" arrival="180.20">