<?xml version="1.0" encoding="UTF-8"?>

<!-- generated on 2024-12-09 14:38:38 by Eclipse SUMO GUI Version 1.21.0
<sumoConfiguration xmlns:xsi="http://www.w3.org/2001/XMLSchema-instance" xsi:noNamespaceSchemaLocation="http://sumo.dlr.de/xsd/sumoConfiguration.xsd">

    <input>
        <net-file value="interchange-variation-1.net.xml"/>
        <route-files value="interchangeTrafficCustom.rou.xml"/>
    </input>

    <output>
        <tripinfo-output value="data/trip_info.xml"/>
        <vehroute-output value="data/vehicle_routes.xml"/>
    </output>

    <time>
        <begin value="0"/>
        <end value="1000"/>
        <step-length value="0.05"/>
    </time>

    <gui_only>
        <delay value="200"/>
    </gui_only>

</sumoConfiguration>
-->

<routes xmlns:xsi="http://www.w3.org/2001/XMLSchema-instance" xsi:noNamespaceSchemaLocation="http://sumo.dlr.de/xsd/routes_file.xsd">
    <vehicle id="m60-north_1115" depart="1.65" arrival="95.60">
        <route edges="E11 E0 146417963 146417963-AddedOffRampEdge 158470844#0 158470844#1-AddedOnRampEdge 158470844#1 145852821 145852821.67 145852815 145852815-AddedOffRampEdge 1066957350 145852800#1"/>
    </vehicle>

    <vehicle id="m60-north_810" depart="4.75" arrival="96.35">
        <route edges="E13 E2 146417963 146417963-AddedOffRampEdge 158470844#0 158470844#1-AddedOnRampEdge 158470844#1 145852821 145852821.67 145852815 145852815-AddedOffRampEdge 1066957350 145852800#1"/>
    </vehicle>

    <vehicle id="m62-m60-a_219" depart="2.00" arrival="96.75">
        <route edges="E7 46372495 111538044 296702213 296702213.417 145852821 145852821.67 145852815 145852815-AddedOffRampEdge 1066957350 145852800#1"/>
    </vehicle>

    <vehicle id="m60-worsley_825" depart="1.65" arrival="97.85">
        <route edges="E9 E1 146417963 146417963-AddedOffRampEdge 158470844#0 158470844#1-AddedOnRampEdge 158470844#1 145852821 145852821.67 145852815 145852815-AddedOffRampEdge 145852856"/>
    </vehicle>

    <vehicle id="m62-m60-a_53" depart="3.85" arrival="101.45">
        <route edges="E6 46372495 111538044 296702213 296702213.417 145852821 145852821.67 145852815 145852815-AddedOffRampEdge 1066957350 145852800#1"/>
    </vehicle>

    <vehicle id="m62-m60-a_3" depart="1.25" arrival="104.75">
        <route edges="E6 46372495 111538044 296702213 296702213.417 145852821 145852821.67 145852815 145852815-AddedOffRampEdge 1066957350 145852800#1"/>
    </vehicle>

    <vehicle id="m62-m60-b_129" depart="6.50" arrival="105.55">
        <route edges="E6 46372495 111538044 296702213 E15 145852821.67 145852815 145852815-AddedOffRampEdge 1066957350 145852800#1"/>
    </vehicle>

    <vehicle id="m62-m60-a_1132" depart="4.75" arrival="107.25">
        <route edges="E8 46372495 111538044 296702213 296702213.417 145852821 145852821.67 145852815 145852815-AddedOffRampEdge 1066957350 145852800#1"/>
    </vehicle>

    <vehicle id="m602-m60_44" depart="1.45" arrival="109.70">
        <route edges="E3 145868728 145876496 611356040 145876499 158470844#1-AddedOnRampEdge 158470844#1 145852821 145852821.67 145852815 145852815-AddedOffRampEdge 1066957350 145852800#1"/>
    </vehicle>

    <vehicle id="m60-north_873" depart="1.05" arrival="111.00">
        <route edges="E12 E0 146417963 146417963-AddedOffRampEdge 158470844#0 158470844#1-AddedOnRampEdge 158470844#1 145852821 145852821.67 145852815 145852815-AddedOffRampEdge 1066957350 145852800#1"/>
    </vehicle>

    <vehicle id="m62-m60-b_412" depart="4.60" arrival="111.00">
        <route edges="E7 46372495 111538044 296702213 E15 145852821.67 145852815 145852815-AddedOffRampEdge 1066957350 145852800#1"/>
    </vehicle>

    <vehicle id="m62-m60-b_138" depart="7.25" arrival="112.25">
        <route edges="E7 46372495 111538044 296702213 E15 145852821.67 145852815 145852815-AddedOffRampEdge 1066957350 145852800#1"/>
    </vehicle>

    <vehicle id="m60-north_966" depart="4.75" arrival="112.35">
        <route edges="E14 E2 146417963 146417963-AddedOffRampEdge 158470844#0 158470844#1-AddedOnRampEdge 158470844#1 145852821 145852821.67 145852815 145852815-AddedOffRampEdge 1066957350 145852800#1"/>
    </vehicle>

    <vehicle id="m60-north_1041" depart="2.25" arrival="112.70">
        <route edges="E10 E1 146417963 146417963-AddedOffRampEdge 158470844#0 158470844#1-AddedOnRampEdge 158470844#1 145852821 145852821.67 145852815 145852815-AddedOffRampEdge 1066957350 145852800#1"/>
    </vehicle>

    <vehicle id="m62-m60-b_848" depart="9.10" arrival="113.50">
        <route edges="E6 46372495 111538044 296702213 E15 145852821.67 145852815 145852815-AddedOffRampEdge 1066957350 145852800#1"/>
    </vehicle>

    <vehicle id="m60-north_540" depart="4.25" arrival="113.90">
        <route edges="E11 E0 146417963 146417963-AddedOffRampEdge 158470844#0 158470844#1-AddedOnRampEdge 158470844#1 145852821 145852821.67 145852815 145852815-AddedOffRampEdge 1066957350 145852800#1"/>
    </vehicle>

    <vehicle id="m62-m60-a_306" depart="12.60" arrival="115.70">
        <route edges="E8 46372495 111538044 296702213 296702213.417 145852821 145852821.67 145852815 145852815-AddedOffRampEdge 1066957350 145852800#1"/>
    </vehicle>

    <vehicle id="m60-worsley_197" depart="2.15" arrival="116.55">
        <route edges="E14 E2 146417963 146417963-AddedOffRampEdge 158470844#0 158470844#1-AddedOnRampEdge 158470844#1 145852821 145852821.67 145852815 145852815-AddedOffRampEdge 145852856"/>
    </vehicle>

    <vehicle id="m60-north_1072" depart="9.05" arrival="117.00">
        <route edges="E12 E0 146417963 146417963-AddedOffRampEdge 158470844#0 158470844#1-AddedOnRampEdge 158470844#1 145852821 145852821.67 145852815 145852815-AddedOffRampEdge 1066957350 145852800#1"/>
    </vehicle>

    <vehicle id="m62-m60-b_206" depart="10.85" arrival="117.15">
        <route edges="E7 46372495 111538044 296702213 E15 145852821.67 145852815 145852815-AddedOffRampEdge 1066957350 145852800#1"/>
    </vehicle>

    <vehicle id="m60-north_898" depart="4.25" arrival="117.60">
        <route edges="E9 E1 146417963 146417963-AddedOffRampEdge 158470844#0 158470844#1-AddedOnRampEdge 158470844#1 145852821 145852821.67 145852815 145852815-AddedOffRampEdge 1066957350 145852800#1"/>
    </vehicle>

    <vehicle id="m60-north_61" depart="6.85" arrival="117.65">
        <route edges="E11 E0 146417963 146417963-AddedOffRampEdge 158470844#0 158470844#1-AddedOnRampEdge 158470844#1 145852821 145852821.67 145852815 145852815-AddedOffRampEdge 1066957350 145852800#1"/>
    </vehicle>

    <vehicle id="m60-worsley_1077" depart="6.90" arrival="118.20">
        <route edges="E9 E1 146417963 146417963-AddedOffRampEdge 158470844#0 158470844#1-AddedOnRampEdge 158470844#1 145852821 145852821.67 145852815 145852815-AddedOffRampEdge 145852856"/>
    </vehicle>

    <vehicle id="m62-m60-a_307" depart="11.75" arrival="118.80">
        <route edges="E6 46372495 111538044 296702213 296702213.417 145852821 145852821.67 145852815 145852815-AddedOffRampEdge 1066957350 145852800#1"/>
    </vehicle>

    <vehicle id="m60-north_81" depart="7.85" arrival="119.95">
        <route edges="E14 E2 146417963 146417963-AddedOffRampEdge 158470844#0 158470844#1-AddedOnRampEdge 158470844#1 145852821 145852821.67 145852815 145852815-AddedOffRampEdge 1066957350 145852800#1"/>
    </vehicle>

    <vehicle id="m62-m60-b_568" depart="17.90" arrival="120.05">
        <route edges="E8 46372495 111538044 296702213 E15 145852821.67 145852815 145852815-AddedOffRampEdge 1066957350 145852800#1"/>
    </vehicle>

    <vehicle id="m60-north_831" depart="9.45" arrival="120.45">
        <route edges="E10 E1 146417963 146417963-AddedOffRampEdge 158470844#0 158470844#1-AddedOnRampEdge 158470844#1 145852821 145852821.67 145852815 145852815-AddedOffRampEdge 1066957350 145852800#1"/>
    </vehicle>

    <vehicle id="m62-m60-b_281" depart="18.75" arrival="121.70">
        <route edges="E7 46372495 111538044 296702213 E15 145852821.67 145852815 145852815-AddedOffRampEdge 1066957350 145852800#1"/>
    </vehicle>

    <vehicle id="m60-north_300" depart="11.10" arrival="122.65">
        <route edges="E9 E1 146417963 146417963-AddedOffRampEdge 158470844#0 158470844#1-AddedOnRampEdge 158470844#1 145852821 145852821.67 145852815 145852815-AddedOffRampEdge 1066957350 145852800#1"/>
    </vehicle>

    <vehicle id="m602-m60_422" depart="5.65" arrival="122.95">
        <route edges="E5 145868728 145876496 611356040 145876499 158470844#1-AddedOnRampEdge 158470844#1 145852821 145852821.67 145852815 145852815-AddedOffRampEdge 1066957350 145852800#1"/>
    </vehicle>

    <vehicle id="m62-m60-a_932" depart="15.20" arrival="123.10">
        <route edges="E8 46372495 111538044 296702213 296702213.417 145852821 145852821.67 145852815 145852815-AddedOffRampEdge 1066957350 145852800#1"/>
    </vehicle>

    <vehicle id="m602-m60_347" depart="6.70" arrival="124.15">
        <route edges="E3 145868728 145876496 611356040 145876499 158470844#1-AddedOnRampEdge 158470844#1 145852821 145852821.67 145852815 145852815-AddedOffRampEdge 1066957350 145852800#1"/>
    </vehicle>

    <vehicle id="m62-m60-a_224" depart="13.50" arrival="124.35">
        <route edges="E7 46372495 111538044 296702213 296702213.417 145852821 145852821.67 145852815 145852815-AddedOffRampEdge 1066957350 145852800#1"/>
    </vehicle>

    <vehicle id="m602-m60_1064" depart="4.00" arrival="124.80">
        <route edges="E4 145868728 145876496 611356040 145876499 158470844#1-AddedOnRampEdge 158470844#1 145852821 145852821.67 145852815 145852815-AddedOffRampEdge 1066957350 145852800#1"/>
    </vehicle>

    <vehicle id="m62-m60-b_462" depart="19.70" arrival="125.25">
        <route edges="E6 46372495 111538044 296702213 E15 145852821.67 145852815 145852815-AddedOffRampEdge 1066957350 145852800#1"/>
    </vehicle>

    <vehicle id="m60-worsley_816" depart="7.50" arrival="125.45">
        <route edges="E13 E2 146417963 146417963-AddedOffRampEdge 158470844#0 158470844#1-AddedOnRampEdge 158470844#1 145852821 145852821.67 145852815 145852815-AddedOffRampEdge 145852856"/>
    </vehicle>

    <vehicle id="m60-north_7" depart="12.95" arrival="125.70">
        <route edges="E10 E1 146417963 146417963-AddedOffRampEdge 158470844#0 158470844#1-AddedOnRampEdge 158470844#1 145852821 145852821.67 145852815 145852815-AddedOffRampEdge 1066957350 145852800#1"/>
    </vehicle>

    <vehicle id="m62-m60-a_799" depart="14.40" arrival="126.80">
        <route edges="E6 46372495 111538044 296702213 296702213.417 145852821 145852821.67 145852815 145852815-AddedOffRampEdge 1066957350 145852800#1"/>
    </vehicle>

    <vehicle id="m602-m60_410" depart="4.05" arrival="126.95">
        <route edges="E3 145868728 145876496 611356040 145876499 158470844#1-AddedOnRampEdge 158470844#1 145852821 145852821.67 145852815 145852815-AddedOffRampEdge 1066957350 145852800#1"/>
    </vehicle>

    <vehicle id="m60-north_298" depart="10.35" arrival="128.10">
        <route edges="E11 E0 146417963 146417963-AddedOffRampEdge 158470844#0 158470844#1-AddedOnRampEdge 158470844#1 145852821 145852821.67 145852815 145852815-AddedOffRampEdge 1066957350 145852800#1"/>
    </vehicle>

    <vehicle id="m62-m60-a_329" depart="16.15" arrival="128.10">
        <route edges="E7 46372495 111538044 296702213 296702213.417 145852821 145852821.67 145852815 145852815-AddedOffRampEdge 1066957350 145852800#1"/>
    </vehicle>

    <vehicle id="m602-m60_817" depart="8.25" arrival="128.50">
        <route edges="E5 145868728 145876496 611356040 145876499 158470844#1-AddedOnRampEdge 158470844#1 145852821 145852821.67 145852815 145852815-AddedOffRampEdge 1066957350 145852800#1"/>
    </vehicle>

    <vehicle id="m60-north_27" depart="10.90" arrival="128.85">
        <route edges="E13 E2 146417963 146417963-AddedOffRampEdge 158470844#0 158470844#1-AddedOnRampEdge 158470844#1 145852821 145852821.67 145852815 145852815-AddedOffRampEdge 1066957350 145852800#1"/>
    </vehicle>

    <vehicle id="m60-north_164" depart="15.10" arrival="129.35">
        <route edges="E9 E1 146417963 146417963-AddedOffRampEdge 158470844#0 158470844#1-AddedOnRampEdge 158470844#1 145852821 145852821.67 145852815 145852815-AddedOffRampEdge 1066957350 145852800#1"/>
    </vehicle>

    <vehicle id="m62-m60-b_684" depart="21.35" arrival="129.35">
        <route edges="E7 46372495 111538044 296702213 E15 145852821.67 145852815 145852815-AddedOffRampEdge 1066957350 145852800#1"/>
    </vehicle>

    <vehicle id="m60-north_737" depart="12.45" arrival="130.55">
        <route edges="E12 E0 146417963 146417963-AddedOffRampEdge 158470844#0 158470844#1-AddedOnRampEdge 158470844#1 145852821 145852821.67 145852815 145852815-AddedOffRampEdge 1066957350 145852800#1"/>
    </vehicle>

    <vehicle id="m62-m60-a_971" depart="17.10" arrival="131.45">
        <route edges="E6 46372495 111538044 296702213 296702213.417 145852821 145852821.67 145852815 145852815-AddedOffRampEdge 1066957350 145852800#1"/>
    </vehicle>

    <vehicle id="m602-m60_1051" depart="6.70" arrival="131.95">
        <route edges="E4 145868728 145876496 611356040 145876499 158470844#1-AddedOnRampEdge 158470844#1 145852821 145852821.67 145852815 145852815-AddedOffRampEdge 1066957350 145852800#1"/>
    </vehicle>

    <vehicle id="m60-north_903" depart="12.90" arrival="132.15">
        <route edges="E14 E2 146417963 146417963-AddedOffRampEdge 158470844#0 158470844#1-AddedOnRampEdge 158470844#1 145852821 145852821.67 145852815 145852815-AddedOffRampEdge 1066957350 145852800#1"/>
    </vehicle>

    <vehicle id="m62-m60-a_71" depart="23.95" arrival="135.20">
        <route edges="E7 46372495 111538044 296702213 296702213.417 145852821 145852821.67 145852815 145852815-AddedOffRampEdge 1066957350 145852800#1"/>
    </vehicle>

    <vehicle id="m62-m60-a_358" depart="20.50" arrival="136.05">
        <route edges="E8 46372495 111538044 296702213 296702213.417 145852821 145852821.67 145852815 145852815-AddedOffRampEdge 1066957350 145852800#1"/>
    </vehicle>

    <vehicle id="m60-north_867" depart="14.55" arrival="136.75">
        <route edges="E11 E0 146417963 146417963-AddedOffRampEdge 158470844#0 158470844#1-AddedOnRampEdge 158470844#1 145852821 145852821.67 145852815 145852815-AddedOffRampEdge 1066957350 145852800#1"/>
    </vehicle>

    <vehicle id="m62-m60-b_449" depart="22.35" arrival="137.30">
        <route edges="E6 46372495 111538044 296702213 E15 145852821.67 145852815 145852815-AddedOffRampEdge 1066957350 145852800#1"/>
    </vehicle>

    <vehicle id="m62-m60-b_472" depart="23.20" arrival="137.50">
        <route edges="E8 46372495 111538044 296702213 E15 145852821.67 145852815 145852815-AddedOffRampEdge 1066957350 145852800#1"/>
    </vehicle>

    <vehicle id="m60-north_342" depart="15.25" arrival="137.65">
        <route edges="E13 E2 146417963 146417963-AddedOffRampEdge 158470844#0 158470844#1-AddedOnRampEdge 158470844#1 145852821 145852821.67 145852815 145852815-AddedOffRampEdge 1066957350 145852800#1"/>
    </vehicle>

    <vehicle id="m602-m60_24" depart="9.50" arrival="138.10">
        <route edges="E3 145868728 145876496 611356040 145876499 158470844#1-AddedOnRampEdge 158470844#1 145852821 145852821.67 145852815 145852815-AddedOffRampEdge 1066957350 145852800#1"/>
    </vehicle>

    <vehicle id="m60-worsley_221" depart="16.30" arrival="138.65">
        <route edges="E12 E0 146417963 146417963-AddedOffRampEdge 158470844#0 158470844#1-AddedOnRampEdge 158470844#1 145852821 145852821.67 145852815 145852815-AddedOffRampEdge 145852856"/>
    </vehicle>

    <vehicle id="m602-m60_689" depart="10.85" arrival="138.95">
        <route edges="E5 145868728 145876496 611356040 145876499 158470844#1-AddedOnRampEdge 158470844#1 145852821 145852821.67 145852815 145852815-AddedOffRampEdge 1066957350 145852800#1"/>
    </vehicle>

    <vehicle id="m62-m60-b_499" depart="25.85" arrival="138.95">
        <route edges="E8 46372495 111538044 296702213 E15 145852821.67 145852815 145852815-AddedOffRampEdge 1066957350 145852800#1"/>
    </vehicle>

    <vehicle id="m60-north_511" depart="17.10" arrival="139.25">
        <route edges="E14 E2 146417963 146417963-AddedOffRampEdge 158470844#0 158470844#1-AddedOnRampEdge 158470844#1 145852821 145852821.67 145852815 145852815-AddedOffRampEdge 1066957350 145852800#1"/>
    </vehicle>

    <vehicle id="m62-m60-a_142" depart="25.00" arrival="140.15">
        <route edges="E6 46372495 111538044 296702213 296702213.417 145852821 145852821.67 145852815 145852815-AddedOffRampEdge 1066957350 145852800#1"/>
    </vehicle>

    <vehicle id="m602-m60_414" depart="9.30" arrival="140.30">
        <route edges="E4 145868728 145876496 611356040 145876499 158470844#1-AddedOnRampEdge 158470844#1 145852821 145852821.67 145852815 145852815-AddedOffRampEdge 1066957350 145852800#1"/>
    </vehicle>

    <vehicle id="m60-north_184" depart="17.15" arrival="140.85">
        <route edges="E10 E1 146417963 146417963-AddedOffRampEdge 158470844#0 158470844#1-AddedOnRampEdge 158470844#1 145852821 145852821.67 145852815 145852815-AddedOffRampEdge 1066957350 145852800#1"/>
    </vehicle>

    <vehicle id="m60-north_320" depart="18.20" arrival="141.65">
        <route edges="E11 E0 146417963 146417963-AddedOffRampEdge 158470844#0 158470844#1-AddedOnRampEdge 158470844#1 145852821 145852821.67 145852815 145852815-AddedOffRampEdge 1066957350 145852800#1"/>
    </vehicle>

    <vehicle id="m602-m60_762" depart="13.45" arrival="142.85">
        <route edges="E5 145868728 145876496 611356040 145876499 158470844#1-AddedOnRampEdge 158470844#1 145852821 145852821.67 145852815 145852815-AddedOffRampEdge 1066957350 145852800#1"/>
    </vehicle>

    <vehicle id="m60-north_356" depart="19.90" arrival="143.00">
        <route edges="E12 E0 146417963 146417963-AddedOffRampEdge 158470844#0 158470844#1-AddedOnRampEdge 158470844#1 145852821 145852821.67 145852815 145852815-AddedOffRampEdge 1066957350 145852800#1"/>
    </vehicle>

    <vehicle id="m62-m60-a_79" depart="28.45" arrival="144.40">
        <route edges="E8 46372495 111538044 296702213 296702213.417 145852821 145852821.67 145852815 145852815-AddedOffRampEdge 1066957350 145852800#1"/>
    </vehicle>

    <vehicle id="m60-north_844" depart="19.10" arrival="144.50">
        <route edges="E9 E1 146417963 146417963-AddedOffRampEdge 158470844#0 158470844#1-AddedOnRampEdge 158470844#1 145852821 145852821.67 145852815 145852815-AddedOffRampEdge 1066957350 145852800#1"/>
    </vehicle>

    <vehicle id="m602-m60_850" depart="12.15" arrival="144.95">
        <route edges="E3 145868728 145876496 611356040 145876499 158470844#1-AddedOnRampEdge 158470844#1 145852821 145852821.67 145852815 145852815-AddedOffRampEdge 1066957350 145852800#1"/>
    </vehicle>

    <vehicle id="m60-north_681" depart="21.75" arrival="145.60">
        <route edges="E11 E0 146417963 146417963-AddedOffRampEdge 158470844#0 158470844#1-AddedOnRampEdge 158470844#1 145852821 145852821.67 145852815 145852815-AddedOffRampEdge 1066957350 145852800#1"/>
    </vehicle>

    <vehicle id="m62-m60-b_428" depart="27.65" arrival="146.20">
        <route edges="E6 46372495 111538044 296702213 E15 145852821.67 145852815 145852815-AddedOffRampEdge 1066957350 145852800#1"/>
    </vehicle>

    <vehicle id="m60-north_1078" depart="19.05" arrival="146.50">
        <route edges="E13 E2 146417963 146417963-AddedOffRampEdge 158470844#0 158470844#1-AddedOnRampEdge 158470844#1 145852821 145852821.67 145852815 145852815-AddedOffRampEdge 1066957350 145852800#1"/>
    </vehicle>

    <vehicle id="m60-north_482" depart="20.85" arrival="147.10">
        <route edges="E10 E1 146417963 146417963-AddedOffRampEdge 158470844#0 158470844#1-AddedOnRampEdge 158470844#1 145852821 145852821.67 145852815 145852815-AddedOffRampEdge 1066957350 145852800#1"/>
    </vehicle>

    <vehicle id="m602-m60_860" depart="14.80" arrival="147.80">
        <route edges="E3 145868728 145876496 611356040 145876499 158470844#1-AddedOnRampEdge 158470844#1 145852821 145852821.67 145852815 145852815-AddedOffRampEdge 1066957350 145852800#1"/>
    </vehicle>

    <vehicle id="m602-m60_792" depart="16.10" arrival="148.55">
        <route edges="E5 145868728 145876496 611356040 145876499 158470844#1-AddedOnRampEdge 158470844#1 145852821 145852821.67 145852815 145852815-AddedOffRampEdge 1066957350 145852800#1"/>
    </vehicle>

    <vehicle id="m62-m60-a_19" depart="26.60" arrival="149.75">
        <route edges="E7 46372495 111538044 296702213 296702213.417 145852821 145852821.67 145852815 145852815-AddedOffRampEdge 1066957350 145852800#1"/>
    </vehicle>

    <vehicle id="m60-north_1179" depart="22.55" arrival="150.15">
        <route edges="E9 E1 146417963 146417963-AddedOffRampEdge 158470844#0 158470844#1-AddedOnRampEdge 158470844#1 145852821 145852821.67 145852815 145852815-AddedOffRampEdge 1066957350 145852800#1"/>
    </vehicle>

    <vehicle id="m62-m60-b_765" depart="29.25" arrival="150.75">
        <route edges="E7 46372495 111538044 296702213 E15 145852821.67 145852815 145852815-AddedOffRampEdge 1066957350 145852800#1"/>
    </vehicle>

    <vehicle id="m60-worsley_151" depart="20.80" arrival="150.95">
        <route edges="E14 E2 146417963 146417963-AddedOffRampEdge 158470844#0 158470844#1-AddedOnRampEdge 158470844#1 145852821 145852821.67 145852815 145852815-AddedOffRampEdge 145852856"/>
    </vehicle>

    <vehicle id="m62-m60-b_931" depart="33.60" arrival="150.95">
        <route edges="E8 46372495 111538044 296702213 E15 145852821.67 145852815 145852815-AddedOffRampEdge 1066957350 145852800#1"/>
    </vehicle>

    <vehicle id="m60-north_161" depart="23.50" arrival="151.55">
        <route edges="E12 E0 146417963 146417963-AddedOffRampEdge 158470844#0 158470844#1-AddedOnRampEdge 158470844#1 145852821 145852821.67 145852815 145852815-AddedOffRampEdge 1066957350 145852800#1"/>
    </vehicle>

    <vehicle id="m602-m60_712" depart="17.40" arrival="152.00">
        <route edges="E3 145868728 145876496 611356040 145876499 158470844#1-AddedOnRampEdge 158470844#1 145852821 145852821.67 145852815 145852815-AddedOffRampEdge 1066957350 145852800#1"/>
    </vehicle>

    <vehicle id="m60-north_280" depart="22.70" arrival="152.30">
        <route edges="E13 E2 146417963 146417963-AddedOffRampEdge 158470844#0 158470844#1-AddedOnRampEdge 158470844#1 145852821 145852821.67 145852815 145852815-AddedOffRampEdge 1066957350 145852800#1"/>
    </vehicle>

    <vehicle id="m60-north_168" depart="24.35" arrival="152.80">
        <route edges="E10 E1 146417963 146417963-AddedOffRampEdge 158470844#0 158470844#1-AddedOnRampEdge 158470844#1 145852821 145852821.67 145852815 145852815-AddedOffRampEdge 1066957350 145852800#1"/>
    </vehicle>

    <vehicle id="m602-m60_437" depart="18.75" arrival="153.20">
        <route edges="E5 145868728 145876496 611356040 145876499 158470844#1-AddedOnRampEdge 158470844#1 145852821 145852821.67 145852815 145852815-AddedOffRampEdge 1066957350 145852800#1"/>
    </vehicle>

    <vehicle id="m60-north_711" depart="24.45" arrival="153.60">
        <route edges="E14 E2 146417963 146417963-AddedOffRampEdge 158470844#0 158470844#1-AddedOnRampEdge 158470844#1 145852821 145852821.67 145852815 145852815-AddedOffRampEdge 1066957350 145852800#1"/>
    </vehicle>

    <vehicle id="m602-m60_271" depart="20.00" arrival="153.80">
        <route edges="E3 145868728 145876496 611356040 145876499 158470844#1-AddedOnRampEdge 158470844#1 145852821 145852821.67 145852815 145852815-AddedOffRampEdge 1066957350 145852800#1"/>
    </vehicle>

    <vehicle id="m62-m60-a_208" depart="31.00" arrival="154.75">
        <route edges="E8 46372495 111538044 296702213 296702213.417 145852821 145852821.67 145852815 145852815-AddedOffRampEdge 1066957350 145852800#1"/>
    </vehicle>

    <vehicle id="m602-m60_70" depart="21.05" arrival="155.10">
        <route edges="E4 145868728 145876496 611356040 145876499 158470844#1-AddedOnRampEdge 158470844#1 145852821 145852821.67 145852815 145852815-AddedOffRampEdge 1066957350 145852800#1"/>
    </vehicle>

    <vehicle id="m60-north_447" depart="25.35" arrival="155.25">
        <route edges="E11 E0 146417963 146417963-AddedOffRampEdge 158470844#0 158470844#1-AddedOnRampEdge 158470844#1 145852821 145852821.67 145852815 145852815-AddedOffRampEdge 1066957350 145852800#1"/>
    </vehicle>

    <vehicle id="m60-north_42" depart="26.15" arrival="155.70">
        <route edges="E9 E1 146417963 146417963-AddedOffRampEdge 158470844#0 158470844#1-AddedOnRampEdge 158470844#1 145852821 145852821.67 145852815 145852815-AddedOffRampEdge 1066957350 145852800#1"/>
    </vehicle>

    <vehicle id="m60-north_382" depart="26.20" arrival="156.20">
        <route edges="E13 E2 146417963 146417963-AddedOffRampEdge 158470844#0 158470844#1-AddedOnRampEdge 158470844#1 145852821 145852821.67 145852815 145852815-AddedOffRampEdge 1066957350 145852800#1"/>
    </vehicle>

    <vehicle id="m60-north_1157" depart="27.10" arrival="156.70">
        <route edges="E12 E0 146417963 146417963-AddedOffRampEdge 158470844#0 158470844#1-AddedOnRampEdge 158470844#1 145852821 145852821.67 145852815 145852815-AddedOffRampEdge 1066957350 145852800#1"/>
    </vehicle>

    <vehicle id="m60-north_1026" depart="28.00" arrival="157.40">
        <route edges="E14 E2 146417963 146417963-AddedOffRampEdge 158470844#0 158470844#1-AddedOnRampEdge 158470844#1 145852821 145852821.67 145852815 145852815-AddedOffRampEdge 1066957350 145852800#1"/>
    </vehicle>

    <vehicle id="m602-m60_1086" depart="23.70" arrival="157.80">
        <route edges="E4 145868728 145876496 611356040 145876499 158470844#1-AddedOnRampEdge 158470844#1 145852821 145852821.67 145852815 145852815-AddedOffRampEdge 1066957350 145852800#1"/>
    </vehicle>

    <vehicle id="m60-north_194" depart="27.95" arrival="158.40">
        <route edges="E10 E1 146417963 146417963-AddedOffRampEdge 158470844#0 158470844#1-AddedOnRampEdge 158470844#1 145852821 145852821.67 145852815 145852815-AddedOffRampEdge 1066957350 145852800#1"/>
    </vehicle>

    <vehicle id="m62-m60-a_503" depart="30.30" arrival="159.60">
        <route edges="E6 46372495 111538044 296702213 296702213.417 145852821 145852821.67 145852815 145852815-AddedOffRampEdge 1066957350 145852800#1"/>
    </vehicle>

    <vehicle id="m62-m60-b_1082" depart="32.95" arrival="159.90">
        <route edges="E6 46372495 111538044 296702213 E15 145852821.67 145852815 145852815-AddedOffRampEdge 1066957350 145852800#1"/>
    </vehicle>

    <vehicle id="m602-m60_1080" depart="21.40" arrival="160.65">
        <route edges="E5 145868728 145876496 611356040 145876499 158470844#1-AddedOnRampEdge 158470844#1 145852821 145852821.67 145852815 145852815-AddedOffRampEdge 1066957350 145852800#1"/>
    </vehicle>

    <vehicle id="m60-north_458" depart="29.65" arrival="161.70">
        <route edges="E9 E1 146417963 146417963-AddedOffRampEdge 158470844#0 158470844#1-AddedOnRampEdge 158470844#1 145852821 145852821.67 145852815 145852815-AddedOffRampEdge 1066957350 145852800#1"/>
    </vehicle>

    <vehicle id="m62-m60-a_226" depart="31.85" arrival="162.15">
        <route edges="E7 46372495 111538044 296702213 296702213.417 145852821 145852821.67 145852815 145852815-AddedOffRampEdge 1066957350 145852800#1"/>
    </vehicle>

    <vehicle id="m60-north_575" depart="29.90" arrival="162.55">
        <route edges="E13 E2 146417963 146417963-AddedOffRampEdge 158470844#0 158470844#1-AddedOnRampEdge 158470844#1 145852821 145852821.67 145852815 145852815-AddedOffRampEdge 1066957350 145852800#1"/>
    </vehicle>

    <vehicle id="m62-m60-b_946" depart="34.50" arrival="162.90">
        <route edges="E7 46372495 111538044 296702213 E15 145852821.67 145852815 145852815-AddedOffRampEdge 1066957350 145852800#1"/>
    </vehicle>

    <vehicle id="m602-m60_701" depart="22.60" arrival="163.45">
        <route edges="E3 145868728 145876496 611356040 145876499 158470844#1-AddedOnRampEdge 158470844#1 145852821 145852821.67 145852815 145852815-AddedOffRampEdge 1066957350 145852800#1"/>
    </vehicle>

    <vehicle id="m60-north_722" depart="30.70" arrival="163.95">
        <route edges="E12 E0 146417963 146417963-AddedOffRampEdge 158470844#0 158470844#1-AddedOnRampEdge 158470844#1 145852821 145852821.67 145852815 145852815-AddedOffRampEdge 1066957350 145852800#1"/>
    </vehicle>

    <vehicle id="m60-north_857" depart="31.40" arrival="164.10">
        <route edges="E10 E1 146417963 146417963-AddedOffRampEdge 158470844#0 158470844#1-AddedOnRampEdge 158470844#1 145852821 145852821.67 145852815 145852815-AddedOffRampEdge 1066957350 145852800#1"/>
    </vehicle>

    <vehicle id="m60-worsley_234" depart="28.95" arrival="164.30">
        <route edges="E11 E0 146417963 146417963-AddedOffRampEdge 158470844#0 158470844#1-AddedOnRampEdge 158470844#1 145852821 145852821.67 145852815 145852815-AddedOffRampEdge 145852856"/>
    </vehicle>

    <vehicle id="m60-north_497" depart="31.65" arrival="164.40">
        <route edges="E14 E2 146417963 146417963-AddedOffRampEdge 158470844#0 158470844#1-AddedOnRampEdge 158470844#1 145852821 145852821.67 145852815 145852815-AddedOffRampEdge 1066957350 145852800#1"/>
    </vehicle>

    <vehicle id="m60-north_964" depart="34.30" arrival="164.50">
        <route edges="E12 E0 146417963 146417963-AddedOffRampEdge 158470844#0 158470844#1-AddedOnRampEdge 158470844#1 145852821 145852821.67 145852815 145852815-AddedOffRampEdge 1066957350 145852800#1"/>
    </vehicle>

    <vehicle id="m60-north_615" depart="32.55" arrival="165.25">
        <route edges="E11 E0 146417963 146417963-AddedOffRampEdge 158470844#0 158470844#1-AddedOnRampEdge 158470844#1 145852821 145852821.67 145852815 145852815-AddedOffRampEdge 1066957350 145852800#1"/>
    </vehicle>

    <vehicle id="m62-m60-b_814" depart="38.80" arrival="165.35">
        <route edges="E8 46372495 111538044 296702213 E15 145852821.67 145852815 145852815-AddedOffRampEdge 1066957350 145852800#1"/>
    </vehicle>

    <vehicle id="m60-north_16" depart="33.55" arrival="165.65">